# vtk DataFile Version 2.0
Simplicial Mesh Example
ASCII
DATASET UNSTRUCTURED_GRID
POINTS 17704 double
-3.453181e+04 -2.758067e+04 -2.480378e+05
-3.533985e+04 -2.412618e+04 -2.483298e+05
-3.325391e+04 -2.463862e+04 -2.485444e+05
-3.096548e+04 -2.527983e+04 -2.487427e+05
2.205452e+04 -6.560587e+04 -2.422940e+05
2.410652e+04 -6.520041e+04 -2.422006e+05
2.276046e+04 -6.395881e+04 -2.426671e+05
2.769853e+04 -6.835171e+04 -2.409499e+05
2.586571e+04 -6.914497e+04 -2.409344e+05
2.833568e+04 -6.639748e+04 -2.414313e+05
2.639946e+04 -6.459456e+04 -2.421318e+05
2.613876e+04 -6.648843e+04 -2.416498e+05
2.086703e+04 -5.964646e+04 -2.439203e+05
1.798124e+04 -6.201718e+04 -2.435576e+05
4.703542e+03 -4.949092e+04 -2.469671e+05
7.548820e+03 -4.709117e+04 -2.473676e+05
9.454511e+03 -4.929169e+04 -2.469035e+05
6.766237e+03 -5.187202e+04 -2.464693e+05
-4.698178e+04 -2.350063e+04 -2.464436e+05
-2.279571e+04 -3.151142e+04 -2.488984e+05
-2.792496e+04 -2.933429e+04 -2.486888e+05
-2.558111e+04 -3.011574e+04 -2.488620e+05
-2.550329e+04 -2.681034e+04 -2.492161e+05
-2.233059e+04 -2.782281e+04 -2.494439e+05
-3.673409e+04 -2.699613e+04 -2.478208e+05
-3.739516e+04 -2.380064e+04 -2.480341e+05
-3.949771e+04 -2.346763e+04 -2.477317e+05
-5.430315e+04 -2.354540e+04 -2.449425e+05
-5.235991e+04 -2.401515e+04 -2.453133e+05
-1.918406e+04 -2.938278e+04 -2.494574e+05
-5.084032e+04 -2.122084e+04 -2.459026e+05
-5.341812e+04 -2.054777e+04 -2.453991e+05
-3.232953e+04 -2.816521e+04 -2.482548e+05
-4.665576e+04 -2.530414e+04 -2.463469e+05
-4.574483e+04 -2.397551e+04 -2.466396e+05
-4.164874e+04 -2.312694e+04 -2.474222e+05
1.142963e+04 -5.143171e+04 -2.464185e+05
8.936776e+03 -5.410874e+04 -2.459373e+05
2.389305e+04 -6.730260e+04 -2.416564e+05
1.125425e+04 -5.614875e+04 -2.453588e+05
1.369062e+04 -5.340611e+04 -2.458498e+05
3.066945e+04 -6.859954e+04 -2.405358e+05
-5.045853e+04 -2.444482e+04 -2.456578e+05
-4.855715e+04 -2.487448e+04 -2.460024e+05
-4.841424e+04 -2.176417e+04 -2.463213e+05
-4.469227e+04 -2.562029e+04 -2.466493e+05
-4.384937e+04 -2.277839e+04 -2.471056e+05
-5.630974e+04 -2.301493e+04 -2.445321e+05
-5.618797e+04 -1.981972e+04 -2.448552e+05
-5.831634e+04 -2.248446e+04 -2.441217e+05
-3.012724e+04 -2.874975e+04 -2.484718e+05
5.636620e+03 -4.488312e+04 -2.478334e+05
2.640847e+03 -4.710982e+04 -2.474649e+05
1.855496e+04 -5.764955e+04 -2.446059e+05
1.583584e+04 -6.016924e+04 -2.441862e+05
1.357172e+04 -5.818877e+04 -2.447803e+05
1.607957e+04 -5.549225e+04 -2.452489e+05
2.463155e+04 -6.296113e+04 -2.427488e+05
5.781521e+02 -4.472872e+04 -2.479628e+05
3.717907e+03 -4.266756e+04 -2.483007e+05
2.012664e+04 -6.386512e+04 -2.429290e+05
2.285623e+04 -6.136453e+04 -2.433304e+05
-2.839411e+04 -2.600033e+04 -2.489656e+05
-4.076416e+04 -2.625057e+04 -2.472532e+05
-3.880010e+04 -2.656570e+04 -2.475552e+05
-4.272821e+04 -2.593543e+04 -2.469513e+05
-6.051068e+04 -2.187691e+04 -2.436378e+05
-5.892995e+04 -2.080970e+04 -2.441180e+05
-6.031681e+04 -1.866954e+04 -2.439617e+05
-6.275490e+04 -2.124888e+04 -2.431343e+05
2.797045e+04 -7.113076e+04 -2.401293e+05
-2.041630e+03 -4.266108e+04 -2.483051e+05
1.455630e+03 -4.078252e+04 -2.486334e+05
-1.443951e+04 -3.569843e+04 -2.490078e+05
-1.722491e+04 -3.430276e+04 -2.489713e+05
-1.288622e+04 -3.250508e+04 -2.494843e+05
-1.603598e+04 -3.094351e+04 -2.494709e+05
-4.608631e+04 -2.228553e+04 -2.467231e+05
-6.781886e+03 -3.584190e+04 -2.492678e+05
-9.736601e+03 -3.406974e+04 -2.494954e+05
-5.175457e+03 -4.088268e+04 -2.485040e+05
-1.189614e+03 -3.919598e+04 -2.488371e+05
-2.001031e+04 -3.290709e+04 -2.489349e+05
-3.934196e+03 -3.754986e+04 -2.490485e+05
-1.144311e+04 -3.732588e+04 -2.489017e+05
-8.309284e+03 -3.910428e+04 -2.487029e+05
-9.792841e+03 1.031378e+03 -2.517476e+05
-7.893586e+03 4.171610e+03 -2.518216e+05
-9.483981e+03 2.991243e+03 -2.517780e+05
-2.248478e+04 1.545845e+04 -2.504667e+05
-1.768007e+04 1.108744e+04 -2.510635e+05
-2.079329e+04 8.779310e+03 -2.509250e+05
-3.771032e+04 3.239104e+04 -2.470321e+05
-4.031246e+04 3.479731e+04 -2.462948e+05
-4.110648e+04 3.047890e+04 -2.467442e+05
-4.319778e+04 3.235383e+04 -2.461380e+05
-4.303421e+04 3.718588e+04 -2.454938e+05
7.466268e+02 -4.907462e+03 -2.519498e+05
2.355350e+03 -1.602929e+03 -2.519713e+05
-3.469160e+03 -2.531926e+03 -2.518689e+05
-3.575517e+02 3.077830e+01 -2.519737e+05
-3.523062e+04 2.758987e+04 -2.479842e+05
-3.750008e+04 2.690473e+04 -2.477216e+05
-2.561456e+04 1.336447e+04 -2.502780e+05
-2.472838e+04 1.564368e+04 -2.502263e+05
-2.413353e+04 1.167579e+04 -2.505372e+05
-2.029438e+04 1.303366e+04 -2.508368e+05
-2.257000e+04 1.009202e+04 -2.507680e+05
-2.876336e+03 1.547588e+03 -2.519759e+05
-7.152065e+03 1.557109e+03 -2.518435e+05
-5.577054e+03 -1.344158e+03 -2.518285e+05
-7.684947e+03 -1.563902e+02 -2.517880e+05
-5.379920e+03 2.864170e+03 -2.519018e+05
5.507926e+04 -5.561834e+04 -2.395346e+05
-1.723988e+04 6.153880e+03 -2.512391e+05
-1.489979e+04 7.186661e+03 -2.513632e+05
-1.514381e+04 9.199322e+03 -2.512834e+05
5.747132e+03 -9.541605e+03 -2.516481e+05
4.964792e+03 -3.733182e+03 -2.518655e+05
3.243170e+03 -7.213858e+03 -2.518007e+05
7.594025e+03 -6.155556e+03 -2.517076e+05
-4.560388e+04 3.703977e+04 -2.450411e+05
-4.534142e+04 3.424472e+04 -2.455106e+05
2.685695e+04 -2.714114e+04 -2.489984e+05
2.165979e+04 -2.710530e+04 -2.495663e+05
-3.527326e+04 2.997188e+04 -2.476919e+05
-3.930328e+04 2.869181e+04 -2.472329e+05
-2.709559e+04 1.505315e+04 -2.500187e+05
-2.857662e+04 1.674183e+04 -2.497594e+05
-1.034640e+04 5.627891e+03 -2.516993e+05
-1.190073e+04 2.219146e+03 -2.517071e+05
-3.005765e+04 1.843051e+04 -2.495002e+05
-3.151919e+04 2.011597e+04 -2.491908e+05
-2.903235e+04 2.060132e+04 -2.494629e+05
-3.441214e+04 2.348189e+04 -2.484947e+05
-3.585861e+04 2.516485e+04 -2.481466e+05
2.743905e+04 -3.322576e+04 -2.482097e+05
-1.901659e+04 7.466595e+03 -2.510821e+05
-2.673863e+04 2.031226e+04 -2.497150e+05
-3.089995e+04 2.512775e+04 -2.487921e+05
-3.296566e+04 2.179893e+04 -2.488427e+05
-1.361267e+03 -3.719694e+03 -2.519094e+05
-1.368648e+04 3.528451e+03 -2.515533e+05
-1.546318e+04 4.841166e+03 -2.513962e+05
-1.270036e+04 7.380296e+03 -2.514952e+05
-2.882103e+04 2.270684e+04 -2.492955e+05
5.137354e+04 -5.366474e+04 -2.407910e+05
4.792813e+04 -5.121748e+04 -2.420155e+05
4.857925e+04 -5.623184e+04 -2.407858e+05
-2.462336e+04 1.789865e+04 -2.500887e+05
1.328294e+04 -1.139689e+04 -2.513661e+05
1.036425e+04 -8.707826e+03 -2.515413e+05
5.605281e+04 -5.991611e+04 -2.382691e+05
5.870730e+04 -5.726749e+04 -2.382811e+05
2.454942e+04 -3.016553e+04 -2.488880e+05
3.962487e+04 -4.209976e+04 -2.452738e+05
3.713335e+04 -3.894791e+04 -2.461230e+05
3.505669e+04 -4.232278e+04 -2.458789e+05
5.230848e+04 -5.820909e+04 -2.395402e+05
-3.300639e+04 2.758071e+04 -2.482822e+05
2.960939e+04 -3.005866e+04 -2.483570e+05
1.598038e+04 -1.447615e+04 -2.510029e+05
1.075506e+04 -1.419710e+04 -2.513427e+05
1.341911e+04 -1.722729e+04 -2.509814e+05
3.029270e+04 -3.628312e+04 -2.475212e+05
3.470338e+04 -3.587393e+04 -2.469513e+05
3.228290e+04 -3.289251e+04 -2.477340e+05
1.862115e+04 -1.768871e+04 -2.505804e+05
1.614921e+04 -2.054730e+04 -2.505340e+05
8.251095e+03 -1.186935e+04 -2.514954e+05
2.402342e+04 -2.413766e+04 -2.496586e+05
-4.581020e+04 3.953705e+04 -2.446268e+05
3.743571e+04 -4.533570e+04 -2.450356e+05
4.215665e+04 -4.528525e+04 -2.442457e+05
3.267470e+04 -3.930295e+04 -2.467001e+05
1.887932e+04 -2.386730e+04 -2.500866e+05
2.128924e+04 -2.093449e+04 -2.501535e+05
4.473491e+04 -4.852833e+04 -2.431904e+05
-4.844380e+04 3.687166e+04 -2.445356e+05
4.525056e+04 -5.384756e+04 -2.419605e+05
3.979727e+04 -4.830805e+04 -2.440621e+05
4.215882e+04 -5.128041e+04 -2.430887e+05
8.611865e+03 2.805803e+04 -2.502141e+05
1.199647e+04 2.991396e+04 -2.498673e+05
6.073689e+03 2.988054e+04 -2.501244e+05
9.611761e+03 3.197515e+04 -2.497184e+05
1.113041e+04 2.624962e+04 -2.503030e+05
-1.196115e+04 4.639220e+04 -2.473993e+05
-9.430827e+03 4.467175e+04 -2.478132e+05
1.418134e+04 2.802550e+04 -2.500037e+05
-6.466819e+03 4.705647e+04 -2.474688e+05
-7.281792e+03 4.318673e+04 -2.481585e+05
-3.790158e+03 4.511077e+04 -2.478890e+05
5.601559e+04 1.975962e+03 -2.456576e+05
5.908788e+04 -2.870094e+01 -2.449528e+05
5.588025e+04 -2.306096e+03 -2.456736e+05
7.008335e+03 3.422538e+04 -2.495558e+05
3.835852e+03 3.212390e+04 -2.498814e+05
7.327044e+04 -2.632339e+03 -2.410960e+05
2.203617e+04 2.405210e+04 -2.497839e+05
1.907577e+04 2.137103e+04 -2.502801e+05
1.645680e+04 2.652071e+04 -2.500293e+05
1.619560e+04 2.276510e+04 -2.504259e+05
1.910608e+04 2.534853e+04 -2.499128e+05
7.088065e+04 -5.285639e+03 -2.417650e+05
7.446523e+04 -3.778324e+03 -2.407170e+05
7.688917e+04 -1.115119e+03 -2.399809e+05
-8.876321e+03 4.870970e+04 -2.470882e+05
-1.245677e+04 5.098460e+04 -2.464739e+05
6.942832e+04 -3.729168e+03 -2.422175e+05
6.688216e+04 -6.202056e+03 -2.428697e+05
1.362977e+04 2.445498e+04 -2.503913e+05
2.215339e+04 1.988138e+04 -2.501242e+05
5.285012e+04 4.118935e+03 -2.463140e+05
5.266393e+04 -5.859369e+01 -2.464040e+05
-5.309394e+03 4.156780e+04 -2.484695e+05
-9.434370e+02 4.272553e+04 -2.483285e+05
-3.094341e+03 3.964832e+04 -2.488164e+05
1.929481e+03 3.995971e+04 -2.487786e+05
3.208145e+04 1.850371e+04 -2.491728e+05
2.895853e+04 1.658753e+04 -2.497796e+05
3.222222e+04 1.415836e+04 -2.494436e+05
-6.117272e+02 3.734028e+04 -2.492030e+05
2.874681e+04 2.088715e+04 -2.494588e+05
2.544276e+04 1.828925e+04 -2.499577e+05
2.527960e+04 2.261704e+04 -2.496413e+05
3.899597e+04 1.356155e+04 -2.485798e+05
3.554897e+04 1.167580e+04 -2.490998e+05
3.894227e+04 9.143584e+03 -2.487492e+05
3.549745e+04 1.606212e+04 -2.488799e+05
4.935923e+04 2.177229e+03 -2.470685e+05
4.951937e+04 6.373826e+03 -2.470043e+05
4.254916e+04 1.112480e+04 -2.480677e+05
4.242851e+04 6.701704e+03 -2.482694e+05
6.552808e+04 -3.231083e+03 -2.432950e+05
6.215139e+04 -1.955269e+03 -2.441849e+05
6.290629e+04 -5.720737e+03 -2.439304e+05
5.914842e+04 -4.396915e+03 -2.449124e+05
4.527720e+03 3.697216e+04 -2.491947e+05
1.671351e+03 3.466255e+04 -2.495512e+05
[...]
POINT_DATA 17704
VECTORS displacement double
0.070249 -0.071727 0.057003
0.067165 -0.066705 0.065278
0.065032 -0.066836 0.058460
0.062671 -0.066725 0.050707
-0.029272 0.058635 -0.026721
-0.033322 0.063747 -0.023421
-0.029444 0.060606 -0.024947
-0.043797 0.071736 -0.018989
-0.040538 0.067330 -0.022367
-0.043434 0.073422 -0.016885
-0.037707 0.069272 -0.019315
-0.038794 0.068408 -0.020705
-0.022366 0.056383 -0.025693
-0.017915 0.048490 -0.030966
0.014049 0.010367 -0.037237
0.009114 0.019486 -0.034777
0.005089 0.025258 -0.034434
0.009549 0.016766 -0.037297
0.080177 -0.066932 0.096651
0.056566 -0.064196 0.016298
0.062488 -0.068930 0.034716
0.059645 -0.067047 0.026613
0.056528 -0.064290 0.031794
0.052683 -0.061381 0.020734
0.072550 -0.071768 0.064201
0.069389 -0.066717 0.071455
0.071553 -0.066498 0.077713
0.087534 -0.066544 0.113500
0.086488 -0.067754 0.108514
0.049208 -0.057520 0.009099
0.080467 -0.061681 0.109105
0.081705 -0.059820 0.115776
0.067780 -0.071245 0.049657
0.082552 -0.070509 0.093052
0.079545 -0.067892 0.092901
0.073656 -0.066067 0.083943
0.000707 0.030962 -0.033634
0.004609 0.023226 -0.036865
-0.034632 0.062912 -0.024685
-0.000809 0.030062 -0.035924
-0.004513 0.037479 -0.032248
-0.050437 0.078203 -0.013852
0.085336 -0.068796 0.103521
0.084007 -0.069711 0.098342
0.078977 -0.063154 0.102681
0.080761 -0.071093 0.087681
0.075678 -0.065420 0.090086
0.088382 -0.065077 0.118627
0.082728 -0.057668 0.122495
0.089049 -0.063544 0.123567
0.065195 -0.070327 0.042181
0.012882 0.013499 -0.034712
0.018161 0.003769 -0.036564
-0.016380 0.050548 -0.028015
-0.012262 0.042833 -0.032813
-0.006508 0.036661 -0.034512
-0.010216 0.044055 -0.030366
-0.032620 0.065287 -0.021437
0.021964 -0.002865 -0.035273
0.016413 0.007371 -0.034239
-0.023755 0.053904 -0.028805
-0.027682 0.061185 -0.023478
0.059856 -0.065983 0.041823
0.076872 -0.071722 0.076420
0.074752 -0.071758 0.070591
0.078869 -0.071487 0.082131
0.089593 -0.061716 0.128844
0.086506 -0.059526 0.127007
0.083617 -0.054004 0.132348
0.090018 -0.059829 0.134004
-0.047014 0.071890 -0.019715
0.026500 -0.011316 -0.033395
0.020247 0.000048 -0.033612
0.045602 -0.048292 -0.010760
0.049546 -0.054776 -0.002651
0.041288 -0.044418 -0.011063
0.045436 -0.051792 -0.001683
0.077377 -0.064437 0.096311
0.032894 -0.026978 -0.024912
0.037057 -0.035865 -0.018830
0.031724 -0.021539 -0.030124
0.024504 -0.008684 -0.032163
0.053215 -0.060128 0.006434
0.028712 -0.017793 -0.029346
0.041338 -0.040493 -0.018409
0.036685 -0.031380 -0.025058
0.014384 -0.001539 0.030636
0.010910 0.009394 0.023909
0.012693 0.005547 0.029244
0.005452 0.041203 0.048717
0.008927 0.029842 0.041695
0.012781 0.024595 0.053618
-0.019015 0.078708 0.064863
-0.023964 0.083713 0.068287
-0.016651 0.077501 0.077168
-0.020575 0.081458 0.079880
-0.029217 0.088576 0.071960
0.011466 -0.001097 -0.010725
0.009107 0.007704 -0.003588
0.012957 -0.014705 0.006239
0.009775 -0.006346 0.006235
-0.010628 0.069966 0.065603
-0.009854 0.069837 0.072960
0.008996 0.037543 0.060681
0.005841 0.042566 0.054846
0.010649 0.032934 0.058948
0.007668 0.035149 0.046140
0.011969 0.028468 0.056713
0.010225 0.001072 0.013319
0.012458 0.000360 0.023944
0.013520 -0.011370 0.017089
0.013975 -0.006372 0.024691
0.010614 0.005247 0.018609
-0.075464 0.111401 0.051461
0.013869 0.016377 0.047022
0.011742 0.019046 0.039406
0.009814 0.024412 0.037298
0.009776 0.016303 -0.007259
0.008556 0.013075 0.000261
0.010756 0.008543 -0.009900
0.007809 0.019089 0.003710
-0.030017 0.089695 0.079031
-0.024774 0.085339 0.082615
-0.009105 0.064160 0.022390
-0.004337 0.056329 0.008460
-0.014469 0.073718 0.061963
-0.013141 0.073720 0.075143
0.007180 0.042041 0.062379
0.005252 0.046375 0.064007
0.010945 0.013837 0.028727
0.014689 0.002933 0.035798
0.003154 0.050507 0.065535
0.000866 0.054537 0.067027
-0.000057 0.054475 0.059241
-0.004129 0.062304 0.069888
-0.006864 0.066019 0.071210
-0.013524 0.069005 0.014417
0.013401 0.020564 0.050388
0.000042 0.052841 0.053166
-0.006550 0.063447 0.057391
-0.001537 0.058473 0.068500
0.012279 -0.010877 -0.005941
0.014522 0.007557 0.039807
0.014217 0.012059 0.043483
0.010466 0.019052 0.032942
-0.003072 0.058161 0.055288
-0.067305 0.107595 0.045333
-0.058856 0.103327 0.040375
-0.067251 0.105994 0.035682
0.002877 0.047179 0.051041
0.005229 0.032065 0.011090
0.006682 0.025519 0.007340
-0.084022 0.114050 0.048397
-0.083153 0.114545 0.057549
-0.008632 0.062776 0.011382
-0.035748 0.089819 0.032691
-0.029262 0.085190 0.031041
-0.030391 0.084430 0.020902
-0.075872 0.110310 0.041998
-0.010393 0.068683 0.059398
-0.013455 0.070038 0.025050
0.003385 0.038651 0.013430
0.006966 0.029574 -0.001002
0.004966 0.036305 0.001510
-0.018902 0.074665 0.017336
-0.023412 0.080271 0.029489
-0.018204 0.075286 0.027692
0.001106 0.045326 0.015366
0.002413 0.043283 0.003705
0.008481 0.023293 -0.004211
-0.005105 0.058011 0.019551
-0.034763 0.093210 0.075782
-0.036764 0.088821 0.022770
-0.042886 0.094414 0.034528
-0.024436 0.079627 0.019142
-0.000646 0.049914 0.005922
-0.001682 0.051797 0.017297
-0.050598 0.098817 0.036323
-0.030984 0.090562 0.086636
-0.058836 0.101601 0.030704
-0.043570 0.093143 0.024600
-0.050757 0.097037 0.026600
-0.000102 -0.020349 -0.007281
0.001744 -0.029273 -0.003199
-0.001862 -0.013310 -0.012056
-0.000020 -0.023306 -0.009269
0.001488 -0.026477 -0.001085
-0.021406 0.042151 -0.015793
-0.018215 0.034746 -0.018050
0.003251 -0.033749 0.003391
-0.016887 0.025850 -0.022781
-0.015626 0.028241 -0.019480
-0.013621 0.017574 -0.023535
0.012050 0.006512 0.123812
0.010319 0.012431 0.128691
0.006636 0.018985 0.122468
-0.002102 -0.016122 -0.014405
-0.003661 -0.006632 -0.015560
0.008529 0.019255 0.149341
0.008018 -0.043626 0.028425
0.005870 -0.037511 0.024271
0.004683 -0.037470 0.010433
0.004384 -0.034806 0.014683
0.006285 -0.041017 0.018699
0.003752 0.026676 0.144958
0.006476 0.022286 0.150483
0.011429 0.014977 0.154442
-0.020018 0.033148 -0.021414
-0.024812 0.043632 -0.018360
0.006339 0.022614 0.143535
0.002166 0.029495 0.138537
0.002981 -0.031302 0.006300
0.007364 -0.038673 0.034978
0.013462 -0.000029 0.118248
0.008669 0.012341 0.117436
-0.013293 0.022187 -0.020217
-0.010250 0.008525 -0.023214
-0.010786 0.015203 -0.020451
-0.007057 -0.000603 -0.021539
0.013041 -0.040307 0.063406
0.010337 -0.035649 0.057959
0.011164 -0.030349 0.069121
-0.008158 0.007330 -0.019873
0.011718 -0.043942 0.051389
0.008890 -0.038090 0.046358
0.009900 -0.044800 0.039502
0.014728 -0.028556 0.085825
0.011663 -0.023772 0.079604
0.011721 -0.016288 0.089072
0.014063 -0.035086 0.075034
0.010155 0.005508 0.111752
0.014465 -0.006958 0.111716
0.015045 -0.021483 0.095553
0.011559 -0.008685 0.097552
0.006830 0.021441 0.137957
0.008278 0.017983 0.133146
0.002766 0.028492 0.132635
0.004371 0.024925 0.127077
-0.004356 -0.008690 -0.018490
-0.005754 0.000122 -0.018176
0.011103 -0.001452 0.105127
0.014951 -0.014258 0.104213
-0.025543 0.050922 -0.012181
0.043488 -0.049206 0.130669
0.048376 -0.057202 0.128538
0.048775 -0.053663 0.134189
0.043772 -0.045809 0.135898
0.049074 -0.050007 0.139874
0.043863 -0.042696 0.140436
0.042991 -0.053168 0.124307
0.004451 -0.022843 -0.035723
-0.002118 -0.013749 -0.037069
0.001440 -0.019887 -0.035799
0.008623 -0.030023 -0.033788
0.004947 -0.026188 -0.034056
-0.000039 -0.015499 -0.037017
-0.010611 -0.000521 -0.037984
-0.004834 -0.008180 -0.037568
0.049180 -0.046437 0.145059
0.043678 -0.036877 0.148333
0.042261 -0.057321 0.116987
0.047764 -0.060562 0.122602
0.047114 -0.064292 0.115735
0.043875 -0.039744 0.144552
0.044048 -0.075204 0.091064
0.038716 -0.071355 0.086745
0.039929 -0.066769 0.097683
0.019781 -0.051356 -0.023176
0.012017 -0.039878 -0.028261
0.015481 -0.046989 -0.023896
0.023177 -0.058327 -0.017644
0.041289 -0.062306 0.107695
0.029218 -0.076067 0.016519
0.033638 -0.079747 0.015446
0.027237 -0.072329 0.006090
0.042636 -0.078460 0.080811
0.037114 -0.074807 0.075165
0.018902 -0.054308 -0.018214
0.035282 -0.082198 0.025998
-0.005968 -0.007565 -0.037738
0.016144 -0.044174 -0.027689
0.036902 -0.083605 0.036765
0.040953 -0.080681 0.070328
0.012415 -0.036932 -0.031144
0.008245 -0.032435 -0.031671
0.031735 -0.076009 0.005751
0.025020 -0.067414 -0.003112
0.046269 -0.067966 0.108336
0.029350 -0.071078 -0.002854
0.022091 -0.061272 -0.011117
0.035463 -0.077310 0.063287
0.039805 -0.082967 0.059162
0.034230 -0.079267 0.051195
0.038471 -0.083974 0.047826
0.032673 -0.079529 0.039184
0.026413 -0.065117 -0.010814
0.045126 -0.071194 0.100621
0.030874 -0.078297 0.027709
0.048974 -0.043031 0.149652
0.060298 -0.023782 0.140337
0.054167 -0.020764 0.139652
0.056009 -0.022906 0.136554
0.026732 0.008433 0.015834
0.021964 0.002164 0.014032
0.006740 0.001530 0.179019
0.005288 0.001411 0.179477
-0.015123 -0.009812 0.176486
-0.019662 -0.013564 0.176295
0.098848 -0.035945 0.122119
0.092620 -0.034174 0.115369
0.083552 -0.028958 0.115988
0.090451 -0.030970 0.122150
-0.179711 0.122408 0.066818
-0.182791 0.122988 0.072715
0.018671 0.013362 0.208735
0.019900 0.011811 0.208162
0.018452 0.011128 0.208442
-0.130552 0.082677 0.111644
-0.135774 0.085576 0.106465
0.041082 -0.018976 0.210068
0.042113 -0.019313 0.209029
0.139036 -0.105488 0.162655
0.064669 0.033485 0.153193
0.060503 0.030521 0.155207
0.072129 0.035296 0.157178
0.181276 -0.120569 0.145376
0.179211 -0.120029 0.143747
0.043464 0.044581 0.217002
0.043593 0.043926 0.218223
0.045707 0.047177 0.215687
0.087763 0.059617 0.119677
0.093852 0.063796 0.126876
0.085511 0.057919 0.121467
0.055590 0.009126 0.168864
0.055688 0.012951 0.167645
0.053824 0.012493 0.168680
-0.113991 0.061847 0.180413
-0.130337 0.076446 0.179828
-0.136010 0.080127 0.178509
-0.139337 0.081333 0.175006
0.047579 0.040638 0.113387
-0.102792 0.068278 0.066940
-0.081980 -0.001467 0.198251
-0.091186 0.001191 0.197027
0.086747 -0.022205 0.145323
0.090102 -0.025733 0.140493
0.098439 -0.030395 0.140509
0.105854 -0.034779 0.140153
0.102655 -0.031184 0.145695
0.099829 -0.027522 0.150959
0.103724 -0.082370 0.046537
0.106637 -0.081352 0.055597
0.115720 -0.089078 0.059445
0.065063 -0.012800 0.172555
-0.001686 0.041015 0.068486
0.000782 0.030201 0.075076
0.000661 0.031540 0.065462
-0.001363 0.038154 0.079743
-0.172847 0.104671 0.153138
0.005075 0.007408 0.138587
0.000974 0.006273 0.134872
-0.002262 0.005187 0.138495
0.012107 0.009628 0.138796
0.008108 0.008820 0.135313
0.002208 0.000821 0.180036
0.001450 0.001141 0.179888
0.000656 0.000556 0.179917
-0.040722 0.045293 0.216100
0.002947 0.001405 0.179999
0.001989 0.001949 0.180059
-0.088292 -0.054610 0.136893
-0.091892 -0.056840 0.136644
0.056678 0.014509 0.158446
0.057478 0.018316 0.157668
0.057984 0.014243 0.159437
0.058729 0.017819 0.159023
0.057559 0.010687 0.159889
-0.094348 0.020204 0.195897
0.003530 0.001141 0.179837
-0.177586 0.121594 0.135686
-0.174756 0.131058 0.091997
0.059292 0.024483 0.195832
-0.111326 0.073593 0.055309
-0.016444 0.045414 -0.006490
-0.017058 0.052037 0.000095
-0.014231 0.048423 -0.000007
-0.051190 -0.039296 0.166183
-0.064181 -0.024704 0.147010
-0.140571 0.135160 0.142402
-0.140878 0.133573 0.147266
-0.014602 0.030181 -0.016913
-0.016765 0.035473 -0.015720
-0.072552 0.021195 0.198949
-0.072969 0.014784 0.198803
-0.067436 0.016008 0.199269
-0.015810 0.038793 -0.011791
-0.013402 0.032571 -0.013641
-0.026749 0.025069 0.190597
0.100441 -0.039791 0.186059
0.080097 0.059945 0.133182
0.076836 0.057140 0.133737
0.023929 -0.032886 0.108620
0.023237 -0.024620 0.117320
0.027503 -0.035180 0.114970
-0.022737 0.030948 0.216866
-0.017852 0.026600 0.216456
-0.180747 0.139404 0.118819
-0.180003 0.137812 0.124982
-0.180050 0.140089 0.124535
-0.090153 -0.003619 0.169648
-0.093445 -0.004963 0.171791
-0.097954 -0.002838 0.174341
-0.094955 -0.001729 0.172171
0.001726 0.007905 0.198046
0.003179 0.005143 0.199512
-0.005483 0.018605 0.191980
0.081693 -0.082283 0.045253
0.085055 -0.084419 0.045526
0.083082 -0.083639 0.038119
-0.064062 0.042452 0.148367
-0.060790 0.038798 0.151945
-0.057683 -0.037901 0.160244
-0.059888 -0.040311 0.157441
-0.168835 0.137493 0.145772
-0.169755 0.140104 0.140016
-0.172592 0.140532 0.137518
0.011329 -0.000389 0.210305
-0.003153 0.012096 0.214028
-0.003484 0.011515 0.212542
-0.000098 0.009253 0.213497
-0.001983 0.009570 0.211331
-0.000404 0.008911 0.212461
0.063013 -0.044670 0.104195
0.057050 -0.039208 0.100061
0.056083 -0.033664 0.107444
-0.046332 0.039123 0.197746
-0.049406 0.039158 0.199390
-0.058549 0.046911 0.196413
-0.093326 0.063125 0.115371
-0.086282 0.059141 0.114056
-0.042734 0.022331 0.105370
-0.027959 0.014503 0.106648
0.060958 0.052164 0.109596
0.066918 0.056976 0.106935
-0.123397 -0.068071 0.172726
-0.124264 -0.067336 0.175218
0.004019 -0.020093 0.022354
0.003373 -0.019402 0.013638
0.003893 -0.015987 0.017203
-0.109199 -0.063365 0.186041
0.004485 -0.010820 0.018929
0.004201 -0.014631 0.024332
-0.173939 0.146988 0.103119
-0.174025 0.146771 0.109044
-0.172114 0.147182 0.106746
-0.175391 0.145759 0.117074
-0.175495 0.144942 0.121556
-0.173348 0.145390 0.120735
-0.094553 0.047353 0.194933
-0.098974 0.045056 0.192782
-0.093738 0.041018 0.195102
0.116695 -0.062398 0.185969
0.109069 -0.056767 0.188320
-0.173953 0.146288 0.114886
-0.171559 0.145873 0.118918
0.066661 -0.005981 0.166730
0.064507 -0.002613 0.166469
0.064468 -0.003105 0.167327
0.019301 -0.027358 0.102327
-0.122848 0.100645 0.192818
-0.128971 0.105045 0.189187
0.135322 -0.056413 0.149624
0.101598 -0.025704 0.180829
0.158638 -0.083858 0.107327
0.158909 -0.082437 0.116927
0.164791 -0.087162 0.122779
0.159091 -0.081123 0.126000
0.165595 -0.089317 0.113282
0.066818 -0.023675 0.163489
-0.068352 -0.044593 0.089773
-0.066037 -0.042771 0.092808
0.027121 -0.009932 0.211561
0.023879 -0.008092 0.210806
0.023559 -0.007396 0.212467
0.021711 -0.006608 0.211457
-0.011338 0.000019 -0.037793
-0.157167 0.144984 0.115485
-0.152996 0.143396 0.120692
-0.152362 0.144234 0.114676
-0.148113 0.141796 0.123122
-0.148382 0.113634 0.172873
0.049969 0.025481 0.166856
0.048171 0.022524 0.168167
0.096153 -0.032411 0.128760
0.104779 -0.037556 0.128461
-0.147999 0.103260 0.034731
-0.150685 0.103877 0.038449
-0.153642 0.106843 0.038801
-0.063840 -0.023003 0.150633
0.016026 0.000523 0.177148
0.018128 -0.000248 0.176931
0.040983 0.017602 0.170967
0.043235 0.019350 0.170101
0.008795 0.002436 0.178415
0.038332 0.018743 0.171278
0.040063 0.020044 0.170749
0.013368 0.003463 0.177391
-0.106794 -0.029370 0.153071
-0.103615 -0.030951 0.143304
-0.054120 0.037628 0.202386
0.005653 0.004275 0.179430
0.005269 0.001252 0.179458
-0.001913 0.004836 0.179676
-0.019793 0.048905 -0.007337
-0.017576 0.042196 -0.011049
-0.037652 0.043130 0.093514
-0.042736 0.034969 0.089521
-0.041018 0.040492 0.079855
-0.131963 0.118860 0.174545
-0.131740 0.120785 0.171051
-0.137546 0.123175 0.169003
0.021496 0.008219 0.223004
0.020361 0.007327 0.223882
0.015982 0.003284 0.222799
0.013785 0.001959 0.223603
-0.131881 -0.073441 0.106412
0.056556 -0.043127 -0.034720
0.065873 -0.052785 -0.030223
0.056307 -0.043586 -0.034058
-0.015925 -0.017254 0.218984
-0.021313 -0.021399 0.217815
-0.028527 -0.024563 0.216390
-0.024070 -0.020526 0.217340
-0.008307 -0.005018 0.209321
-0.013195 -0.006217 0.207745
-0.012633 -0.008768 0.209220
-0.013568 -0.003635 0.206233
-0.017804 -0.007102 0.206026
-0.017922 -0.010009 0.207317
0.000866 0.006636 0.187289
0.011243 0.000898 0.177999
0.010015 0.001676 0.178179
-0.124959 0.117467 0.173832
-0.131027 0.122251 0.167926
-0.137965 0.125266 0.165368
-0.131385 0.124249 0.163876
-0.138152 0.127237 0.161337
0.070259 -0.037489 0.207867
0.128227 -0.103077 0.096611
-0.072328 -0.003984 0.161249
-0.066190 -0.002456 0.160002
-0.060606 -0.003596 0.156472
0.135456 -0.106323 0.101517
0.099544 -0.054914 0.213944
0.116817 -0.067693 0.207679
0.023441 -0.047205 0.088453
0.122053 -0.122164 0.110536
0.126896 -0.123205 0.113781
0.126424 -0.124974 0.107585
0.131054 -0.103342 0.102483
0.080198 -0.038283 0.216410
0.067892 -0.028934 0.219250
-0.113026 0.083561 0.188134
0.042620 -0.019643 0.211180
-0.116714 0.095959 0.195363
-0.120121 0.097352 0.192774
-0.156331 0.143711 0.122407
0.051003 0.060517 0.210096
-0.123652 0.097334 0.188320
-0.130303 0.100665 0.183452
-0.124169 0.096196 0.186341
-0.086870 0.113019 0.099444
-0.092088 0.113693 0.105764
-0.082388 0.108129 0.113067
-0.077960 0.108029 0.106098
0.034979 -0.041141 0.037313
0.032794 -0.041481 0.023698
0.029215 -0.037055 0.024852
-0.117096 0.043353 0.173796
-0.118196 0.046189 0.169933
-0.118048 0.049046 0.172149
-0.119648 0.052096 0.167468
-0.115532 0.034275 0.173006
-0.114068 0.033220 0.169632
-0.183202 0.131516 0.103030
-0.115525 0.038008 0.169637
-0.002198 0.039760 0.202006
-0.009181 0.032711 0.203855
-0.022949 0.025464 0.200967
-0.185083 0.130509 0.106973
-0.185793 0.131063 0.102464
-0.183816 0.129587 0.112498
0.020289 -0.001648 0.219377
0.024652 -0.005355 0.217771
0.019438 -0.001850 0.217947
-0.024454 0.010559 0.133342
0.131335 -0.125851 0.111475
0.121661 -0.124271 0.103332
0.126135 -0.126800 0.100666
0.006142 0.014962 0.178846
0.130819 -0.127371 0.105275
0.113978 -0.078084 0.188446
0.104178 -0.072240 0.191455
0.065720 -0.021563 0.104416
0.066083 -0.020490 0.112070
0.075402 -0.025941 0.109966
0.066037 -0.019166 0.118945
0.055914 -0.016072 0.107363
0.056590 -0.015159 0.114548
0.181876 -0.117256 0.157545
0.176173 -0.112853 0.164634
0.179041 -0.114528 0.162553
-0.084911 0.076489 0.208710
-0.112091 -0.068246 0.083883
-0.101388 -0.065108 0.075249
-0.005742 0.004897 0.179959
-0.006249 0.007054 0.180480
-0.008091 0.006684 0.180062
-0.015136 0.009697 0.179285
-0.018323 0.011620 0.179177
0.115270 -0.092201 0.052357
0.113106 -0.083432 0.065180
0.003294 0.002262 0.180165
0.002143 0.003135 0.180456
0.004627 0.002382 0.180080
0.004239 0.001718 0.179883
-0.021599 0.036190 -0.037963
-0.031767 0.044122 -0.035074
-0.030614 0.045408 -0.034872
-0.000239 0.000540 0.180842
-0.000197 0.000146 0.180553
-0.001494 0.000002 0.180896
0.062946 0.069091 0.198439
0.061588 0.070977 0.196328
0.065060 0.072617 0.192272
-0.094535 0.034745 0.195234
-0.094610 0.028007 0.195336
-0.089052 0.030389 0.196495
0.042615 -0.019647 0.208361
0.048135 -0.023219 0.208427
-0.057048 -0.052254 0.103514
-0.067535 -0.050801 0.154401
0.125441 -0.074018 0.193027
0.124980 -0.074023 0.195418
0.115362 -0.067555 0.198354
0.119066 -0.127718 0.058304
0.124680 -0.129654 0.065809
0.121421 -0.127611 0.055507
0.101791 -0.047796 0.144503
-0.021654 0.033136 -0.023386
0.115343 -0.124922 0.047701
-0.024275 0.035446 -0.024580
0.049399 -0.008579 0.153046
0.046467 -0.005124 0.154249
0.045597 -0.007004 0.152770
0.159663 -0.098678 0.182989
0.149198 -0.090888 0.190574
-0.175505 0.141070 0.133160
-0.177415 0.143183 0.125179
-0.177828 0.141765 0.128029
0.188420 -0.132268 0.093499
0.030271 -0.008857 0.177380
0.036117 -0.015348 0.179607
0.019121 0.003111 0.178867
-0.169871 0.141825 0.135314
-0.044377 0.029602 0.110434
-0.040994 0.037035 0.103265
-0.045537 0.027775 0.096530
-0.024858 -0.040890 0.062935
0.054613 0.016455 0.167343
0.053826 0.019884 0.166604
0.183146 -0.131176 0.086271
0.185766 -0.131786 0.089909
0.005776 -0.001293 0.134008
0.004761 -0.001302 0.129736
0.013387 -0.004736 0.132232
0.074547 0.057289 0.147835
0.078741 0.060360 0.142614
0.082871 0.063506 0.137132
0.084201 0.064537 0.138339
0.184107 -0.131055 0.095161
-0.031579 -0.041701 0.053534
-0.037562 -0.043756 0.054619
-0.032215 -0.038916 0.045042
-0.162635 0.135907 0.150086
-0.158068 0.134382 0.153092
-0.161560 0.136962 0.147844
0.111554 -0.121142 0.038121
0.039305 0.014999 0.061887
0.082192 -0.026609 0.122780
0.088158 -0.028260 0.128852
0.120894 -0.107213 0.143599
0.125212 -0.111312 0.140043
0.123823 -0.112054 0.137032
0.034914 -0.020979 -0.037962
0.048763 -0.039028 -0.032054
0.041874 -0.029512 -0.036787
-0.153924 0.129592 0.161697
-0.148856 0.127733 0.164257
-0.153854 0.131168 0.158917
-0.007510 0.058745 0.161707
-0.009131 0.058230 0.167695
-0.000382 0.049969 0.169934
0.012349 0.019344 0.176360
0.016041 0.021498 0.175379
0.011200 0.018570 0.176827
-0.169219 0.146245 0.117138
-0.168663 0.145122 0.123195
-0.166118 0.145321 0.121408
-0.163618 0.145388 0.119333
-0.162392 0.144020 0.125869