# vtk DataFile Version 2.0
Simplicial Mesh Example
ASCII
DATASET UNSTRUCTURED_GRID
POINTS 17704 double
-3.453181e+04 -2.758067e+04 -2.480378e+05
-3.533985e+04 -2.412618e+04 -2.483298e+05
-3.325391e+04 -2.463862e+04 -2.485444e+05
-3.096548e+04 -2.527983e+04 -2.487427e+05
2.205452e+04 -6.560587e+04 -2.422940e+05
2.410652e+04 -6.520041e+04 -2.422006e+05
2.276046e+04 -6.395881e+04 -2.426671e+05
2.769853e+04 -6.835171e+04 -2.409499e+05
2.586571e+04 -6.914497e+04 -2.409344e+05
2.833568e+04 -6.639748e+04 -2.414313e+05
2.639946e+04 -6.459456e+04 -2.421318e+05
2.613876e+04 -6.648843e+04 -2.416498e+05
2.086703e+04 -5.964646e+04 -2.439203e+05
1.798124e+04 -6.201718e+04 -2.435576e+05
4.703542e+03 -4.949092e+04 -2.469671e+05
7.548820e+03 -4.709117e+04 -2.473676e+05
9.454511e+03 -4.929169e+04 -2.469035e+05
6.766237e+03 -5.187202e+04 -2.464693e+05
-4.698178e+04 -2.350063e+04 -2.464436e+05
-2.279571e+04 -3.151142e+04 -2.488984e+05
-2.792496e+04 -2.933429e+04 -2.486888e+05
-2.558111e+04 -3.011574e+04 -2.488620e+05
-2.550329e+04 -2.681034e+04 -2.492161e+05
-2.233059e+04 -2.782281e+04 -2.494439e+05
-3.673409e+04 -2.699613e+04 -2.478208e+05
-3.739516e+04 -2.380064e+04 -2.480341e+05
-3.949771e+04 -2.346763e+04 -2.477317e+05
-5.430315e+04 -2.354540e+04 -2.449425e+05
-5.235991e+04 -2.401515e+04 -2.453133e+05
-1.918406e+04 -2.938278e+04 -2.494574e+05
-5.084032e+04 -2.122084e+04 -2.459026e+05
-5.341812e+04 -2.054777e+04 -2.453991e+05
-3.232953e+04 -2.816521e+04 -2.482548e+05
-4.665576e+04 -2.530414e+04 -2.463469e+05
-4.574483e+04 -2.397551e+04 -2.466396e+05
-4.164874e+04 -2.312694e+04 -2.474222e+05
1.142963e+04 -5.143171e+04 -2.464185e+05
8.936776e+03 -5.410874e+04 -2.459373e+05
2.389305e+04 -6.730260e+04 -2.416564e+05
1.125425e+04 -5.614875e+04 -2.453588e+05
1.369062e+04 -5.340611e+04 -2.458498e+05
3.066945e+04 -6.859954e+04 -2.405358e+05
-5.045853e+04 -2.444482e+04 -2.456578e+05
-4.855715e+04 -2.487448e+04 -2.460024e+05
-4.841424e+04 -2.176417e+04 -2.463213e+05
-4.469227e+04 -2.562029e+04 -2.466493e+05
-4.384937e+04 -2.277839e+04 -2.471056e+05
-5.630974e+04 -2.301493e+04 -2.445321e+05
-5.618797e+04 -1.981972e+04 -2.448552e+05
-5.831634e+04 -2.248446e+04 -2.441217e+05
-3.012724e+04 -2.874975e+04 -2.484718e+05
5.636620e+03 -4.488312e+04 -2.478334e+05
2.640847e+03 -4.710982e+04 -2.474649e+05
1.855496e+04 -5.764955e+04 -2.446059e+05
1.583584e+04 -6.016924e+04 -2.441862e+05
1.357172e+04 -5.818877e+04 -2.447803e+05
1.607957e+04 -5.549225e+04 -2.452489e+05
2.463155e+04 -6.296113e+04 -2.427488e+05
5.781521e+02 -4.472872e+04 -2.479628e+05
3.717907e+03 -4.266756e+04 -2.483007e+05
2.012664e+04 -6.386512e+04 -2.429290e+05
2.285623e+04 -6.136453e+04 -2.433304e+05
-2.839411e+04 -2.600033e+04 -2.489656e+05
-4.076416e+04 -2.625057e+04 -2.472532e+05
-3.880010e+04 -2.656570e+04 -2.475552e+05
-4.272821e+04 -2.593543e+04 -2.469513e+05
-6.051068e+04 -2.187691e+04 -2.436378e+05
-5.892995e+04 -2.080970e+04 -2.441180e+05
-6.031681e+04 -1.866954e+04 -2.439617e+05
-6.275490e+04 -2.124888e+04 -2.431343e+05
2.797045e+04 -7.113076e+04 -2.401293e+05
-2.041630e+03 -4.266108e+04 -2.483051e+05
1.455630e+03 -4.078252e+04 -2.486334e+05
-1.443951e+04 -3.569843e+04 -2.490078e+05
-1.722491e+04 -3.430276e+04 -2.489713e+05
-1.288622e+04 -3.250508e+04 -2.494843e+05
-1.603598e+04 -3.094351e+04 -2.494709e+05
-4.608631e+04 -2.228553e+04 -2.467231e+05
-6.781886e+03 -3.584190e+04 -2.492678e+05
-9.736601e+03 -3.406974e+04 -2.494954e+05
-5.175457e+03 -4.088268e+04 -2.485040e+05
-1.189614e+03 -3.919598e+04 -2.488371e+05
-2.001031e+04 -3.290709e+04 -2.489349e+05
-3.934196e+03 -3.754986e+04 -2.490485e+05
-1.144311e+04 -3.732588e+04 -2.489017e+05
-8.309284e+03 -3.910428e+04 -2.487029e+05
-9.792841e+03 1.031378e+03 -2.517476e+05
-7.893586e+03 4.171610e+03 -2.518216e+05
-9.483981e+03 2.991243e+03 -2.517780e+05
-2.248478e+04 1.545845e+04 -2.504667e+05
-1.768007e+04 1.108744e+04 -2.510635e+05
-2.079329e+04 8.779310e+03 -2.509250e+05
-3.771032e+04 3.239104e+04 -2.470321e+05
-4.031246e+04 3.479731e+04 -2.462948e+05
-4.110648e+04 3.047890e+04 -2.467442e+05
-4.319778e+04 3.235383e+04 -2.461380e+05
-4.303421e+04 3.718588e+04 -2.454938e+05
7.466268e+02 -4.907462e+03 -2.519498e+05
2.355350e+03 -1.602929e+03 -2.519713e+05
-3.469160e+03 -2.531926e+03 -2.518689e+05
-3.575517e+02 3.077830e+01 -2.519737e+05
-3.523062e+04 2.758987e+04 -2.479842e+05
-3.750008e+04 2.690473e+04 -2.477216e+05
-2.561456e+04 1.336447e+04 -2.502780e+05
-2.472838e+04 1.564368e+04 -2.502263e+05
-2.413353e+04 1.167579e+04 -2.505372e+05
-2.029438e+04 1.303366e+04 -2.508368e+05
-2.257000e+04 1.009202e+04 -2.507680e+05
-2.876336e+03 1.547588e+03 -2.519759e+05
-7.152065e+03 1.557109e+03 -2.518435e+05
-5.577054e+03 -1.344158e+03 -2.518285e+05
-7.684947e+03 -1.563902e+02 -2.517880e+05
-5.379920e+03 2.864170e+03 -2.519018e+05
5.507926e+04 -5.561834e+04 -2.395346e+05
-1.723988e+04 6.153880e+03 -2.512391e+05
-1.489979e+04 7.186661e+03 -2.513632e+05
-1.514381e+04 9.199322e+03 -2.512834e+05
5.747132e+03 -9.541605e+03 -2.516481e+05
4.964792e+03 -3.733182e+03 -2.518655e+05
3.243170e+03 -7.213858e+03 -2.518007e+05
7.594025e+03 -6.155556e+03 -2.517076e+05
-4.560388e+04 3.703977e+04 -2.450411e+05
-4.534142e+04 3.424472e+04 -2.455106e+05
2.685695e+04 -2.714114e+04 -2.489984e+05
2.165979e+04 -2.710530e+04 -2.495663e+05
-3.527326e+04 2.997188e+04 -2.476919e+05
-3.930328e+04 2.869181e+04 -2.472329e+05
-2.709559e+04 1.505315e+04 -2.500187e+05
-2.857662e+04 1.674183e+04 -2.497594e+05
-1.034640e+04 5.627891e+03 -2.516993e+05
-1.190073e+04 2.219146e+03 -2.517071e+05
-3.005765e+04 1.843051e+04 -2.495002e+05
-3.151919e+04 2.011597e+04 -2.491908e+05
-2.903235e+04 2.060132e+04 -2.494629e+05
-3.441214e+04 2.348189e+04 -2.484947e+05
-3.585861e+04 2.516485e+04 -2.481466e+05
2.743905e+04 -3.322576e+04 -2.482097e+05
-1.901659e+04 7.466595e+03 -2.510821e+05
-2.673863e+04 2.031226e+04 -2.497150e+05
-3.089995e+04 2.512775e+04 -2.487921e+05
-3.296566e+04 2.179893e+04 -2.488427e+05
-1.361267e+03 -3.719694e+03 -2.519094e+05
-1.368648e+04 3.528451e+03 -2.515533e+05
-1.546318e+04 4.841166e+03 -2.513962e+05
-1.270036e+04 7.380296e+03 -2.514952e+05
-2.882103e+04 2.270684e+04 -2.492955e+05
5.137354e+04 -5.366474e+04 -2.407910e+05
4.792813e+04 -5.121748e+04 -2.420155e+05
4.857925e+04 -5.623184e+04 -2.407858e+05
-2.462336e+04 1.789865e+04 -2.500887e+05
1.328294e+04 -1.139689e+04 -2.513661e+05
1.036425e+04 -8.707826e+03 -2.515413e+05
5.605281e+04 -5.991611e+04 -2.382691e+05
5.870730e+04 -5.726749e+04 -2.382811e+05
2.454942e+04 -3.016553e+04 -2.488880e+05
3.962487e+04 -4.209976e+04 -2.452738e+05
3.713335e+04 -3.894791e+04 -2.461230e+05
3.505669e+04 -4.232278e+04 -2.458789e+05
5.230848e+04 -5.820909e+04 -2.395402e+05
-3.300639e+04 2.758071e+04 -2.482822e+05
2.960939e+04 -3.005866e+04 -2.483570e+05
1.598038e+04 -1.447615e+04 -2.510029e+05
1.075506e+04 -1.419710e+04 -2.513427e+05
1.341911e+04 -1.722729e+04 -2.509814e+05
3.029270e+04 -3.628312e+04 -2.475212e+05
3.470338e+04 -3.587393e+04 -2.469513e+05
3.228290e+04 -3.289251e+04 -2.477340e+05
1.862115e+04 -1.768871e+04 -2.505804e+05
1.614921e+04 -2.054730e+04 -2.505340e+05
8.251095e+03 -1.186935e+04 -2.514954e+05
2.402342e+04 -2.413766e+04 -2.496586e+05
-4.581020e+04 3.953705e+04 -2.446268e+05
3.743571e+04 -4.533570e+04 -2.450356e+05
4.215665e+04 -4.528525e+04 -2.442457e+05
3.267470e+04 -3.930295e+04 -2.467001e+05
1.887932e+04 -2.386730e+04 -2.500866e+05
2.128924e+04 -2.093449e+04 -2.501535e+05
4.473491e+04 -4.852833e+04 -2.431904e+05
-4.844380e+04 3.687166e+04 -2.445356e+05
4.525056e+04 -5.384756e+04 -2.419605e+05
3.979727e+04 -4.830805e+04 -2.440621e+05
4.215882e+04 -5.128041e+04 -2.430887e+05
8.611865e+03 2.805803e+04 -2.502141e+05
1.199647e+04 2.991396e+04 -2.498673e+05
6.073689e+03 2.988054e+04 -2.501244e+05
9.611761e+03 3.197515e+04 -2.497184e+05
1.113041e+04 2.624962e+04 -2.503030e+05
-1.196115e+04 4.639220e+04 -2.473993e+05
-9.430827e+03 4.467175e+04 -2.478132e+05
1.418134e+04 2.802550e+04 -2.500037e+05
-6.466819e+03 4.705647e+04 -2.474688e+05
-7.281792e+03 4.318673e+04 -2.481585e+05
-3.790158e+03 4.511077e+04 -2.478890e+05
5.601559e+04 1.975962e+03 -2.456576e+05
5.908788e+04 -2.870094e+01 -2.449528e+05
5.588025e+04 -2.306096e+03 -2.456736e+05
7.008335e+03 3.422538e+04 -2.495558e+05
3.835852e+03 3.212390e+04 -2.498814e+05
7.327044e+04 -2.632339e+03 -2.410960e+05
2.203617e+04 2.405210e+04 -2.497839e+05
1.907577e+04 2.137103e+04 -2.502801e+05
1.645680e+04 2.652071e+04 -2.500293e+05
1.619560e+04 2.276510e+04 -2.504259e+05
1.910608e+04 2.534853e+04 -2.499128e+05
7.088065e+04 -5.285639e+03 -2.417650e+05
7.446523e+04 -3.778324e+03 -2.407170e+05
7.688917e+04 -1.115119e+03 -2.399809e+05
-8.876321e+03 4.870970e+04 -2.470882e+05
-1.245677e+04 5.098460e+04 -2.464739e+05
6.942832e+04 -3.729168e+03 -2.422175e+05
6.688216e+04 -6.202056e+03 -2.428697e+05
1.362977e+04 2.445498e+04 -2.503913e+05
2.215339e+04 1.988138e+04 -2.501242e+05
5.285012e+04 4.118935e+03 -2.463140e+05
5.266393e+04 -5.859369e+01 -2.464040e+05
-5.309394e+03 4.156780e+04 -2.484695e+05
-9.434370e+02 4.272553e+04 -2.483285e+05
-3.094341e+03 3.964832e+04 -2.488164e+05
1.929481e+03 3.995971e+04 -2.487786e+05
3.208145e+04 1.850371e+04 -2.491728e+05
2.895853e+04 1.658753e+04 -2.497796e+05
3.222222e+04 1.415836e+04 -2.494436e+05
-6.117272e+02 3.734028e+04 -2.492030e+05
2.874681e+04 2.088715e+04 -2.494588e+05
2.544276e+04 1.828925e+04 -2.499577e+05
2.527960e+04 2.261704e+04 -2.496413e+05
3.899597e+04 1.356155e+04 -2.485798e+05
3.554897e+04 1.167580e+04 -2.490998e+05
3.894227e+04 9.143584e+03 -2.487492e+05
3.549745e+04 1.606212e+04 -2.488799e+05
4.935923e+04 2.177229e+03 -2.470685e+05
4.951937e+04 6.373826e+03 -2.470043e+05
4.254916e+04 1.112480e+04 -2.480677e+05
4.242851e+04 6.701704e+03 -2.482694e+05
6.552808e+04 -3.231083e+03 -2.432950e+05
6.215139e+04 -1.955269e+03 -2.441849e+05
6.290629e+04 -5.720737e+03 -2.439304e+05
5.914842e+04 -4.396915e+03 -2.449124e+05
4.527720e+03 3.697216e+04 -2.491947e+05
1.671351e+03 3.466255e+04 -2.495512e+05
[...]
POINT_DATA 17704
VECTORS displacement double
-0.000000 -0.000000 -0.000000
-0.000000 -0.000000 -0.000000
-0.000000 -0.000000 -0.000000
-0.000000 -0.000000 -0.000000
-0.168153 0.021686 0.047966
-0.000000 -0.000000 -0.000000
-0.000000 -0.000000 -0.000000
-0.000000 -0.000000 -0.000000
-0.000000 -0.000000 -0.000000
-0.000000 -0.000000 -0.000000
-0.000000 -0.000000 -0.000000
-0.000000 -0.000000 -0.000000
-0.000000 -0.000000 -0.000000
-0.000000 -0.000000 -0.000000
-0.000000 -0.000000 -0.000000
-0.000000 -0.000000 -0.000000
-0.000000 -0.000000 -0.000000
-0.174989 0.029416 0.021116
-0.000000 -0.000000 -0.000000
-0.000000 -0.000000 -0.000000
-0.000000 -0.000000 -0.000000
-0.000000 -0.000000 -0.000000
-0.000000 -0.000000 -0.000000
-0.000000 -0.000000 -0.000000
-0.000000 -0.000000 -0.000000
-0.000000 -0.000000 -0.000000
-0.000000 -0.000000 -0.000000
-0.120247 -0.049072 -0.032554
-0.000000 -0.000000 -0.000000
-0.000000 -0.000000 -0.000000
-0.000000 -0.000000 -0.000000
-0.000000 -0.000000 -0.000000
-0.000000 -0.000000 -0.000000
-0.000000 -0.000000 -0.000000
-0.000000 -0.000000 -0.000000
-0.000000 -0.000000 -0.000000
-0.000000 -0.000000 -0.000000
-0.000000 -0.000000 -0.000000
-0.000000 -0.000000 -0.000000
-0.000000 -0.000000 -0.000000
-0.000000 -0.000000 -0.000000
-0.000000 -0.000000 -0.000000
-0.000000 -0.000000 -0.000000
-0.000000 -0.000000 -0.000000
-0.000000 -0.000000 -0.000000
-0.000000 -0.000000 -0.000000
-0.000000 -0.000000 -0.000000
-0.000000 -0.000000 -0.000000
-0.000000 -0.000000 -0.000000
-0.000000 -0.000000 -0.000000
-0.160855 -0.006361 -0.031834
-0.000000 -0.000000 -0.000000
-0.000000 -0.000000 -0.000000
-0.000000 -0.000000 -0.000000
-0.172843 0.026298 0.036740
-0.000000 -0.000000 -0.000000
-0.000000 -0.000000 -0.000000
-0.000000 -0.000000 -0.000000
-0.000000 -0.000000 -0.000000
-0.000000 -0.000000 -0.000000
-0.000000 -0.000000 -0.000000
-0.000000 -0.000000 -0.000000
-0.000000 -0.000000 -0.000000
-0.000000 -0.000000 -0.000000
-0.000000 -0.000000 -0.000000
-0.139677 -0.032988 -0.035436
-0.000000 -0.000000 -0.000000
-0.000000 -0.000000 -0.000000
-0.000000 -0.000000 -0.000000
-0.103112 -0.060939 -0.028418
-0.164343 0.018866 0.053489
-0.177680 0.026214 0.000928
-0.000000 -0.000000 -0.000000
-0.172753 0.015823 -0.020046
-0.000000 -0.000000 -0.000000
-0.000000 -0.000000 -0.000000
-0.000000 -0.000000 -0.000000
-0.000000 -0.000000 -0.000000
-0.000000 -0.000000 -0.000000
-0.000000 -0.000000 -0.000000
-0.000000 -0.000000 -0.000000
-0.000000 -0.000000 -0.000000
-0.000000 -0.000000 -0.000000
-0.000000 -0.000000 -0.000000
-0.000000 -0.000000 -0.000000
-0.000000 -0.000000 -0.000000
-0.000000 -0.000000 -0.000000
-0.000000 -0.000000 -0.000000
-0.000000 -0.000000 -0.000000
-0.000000 -0.000000 -0.000000
-0.000000 -0.000000 -0.000000
-0.000000 -0.000000 -0.000000
-0.000000 -0.000000 -0.000000
-0.000000 -0.000000 -0.000000
-0.000000 -0.000000 -0.000000
-0.154483 -0.027710 0.037844
-0.000000 -0.000000 -0.000000
-0.000000 -0.000000 -0.000000
-0.000000 -0.000000 -0.000000
-0.000000 -0.000000 -0.000000
-0.000000 -0.000000 -0.000000
-0.000000 -0.000000 -0.000000
-0.000000 -0.000000 -0.000000
-0.172223 -0.022186 0.016242
-0.000000 -0.000000 -0.000000
-0.000000 -0.000000 -0.000000
-0.000000 -0.000000 -0.000000
-0.000000 -0.000000 -0.000000
-0.000000 -0.000000 -0.000000
-0.000000 -0.000000 -0.000000
-0.000000 -0.000000 -0.000000
-0.000000 -0.000000 -0.000000
-0.000000 -0.000000 -0.000000
-0.000000 -0.000000 -0.000000
-0.000000 -0.000000 -0.000000
-0.000000 -0.000000 -0.000000
-0.000000 -0.000000 -0.000000
-0.000000 -0.000000 -0.000000
-0.000000 -0.000000 -0.000000
-0.000000 -0.000000 -0.000000
-0.000000 -0.000000 -0.000000
-0.000000 -0.000000 -0.000000
-0.000000 -0.000000 -0.000000
-0.000000 -0.000000 -0.000000
-0.163890 -0.007146 0.036383
-0.000000 -0.000000 -0.000000
-0.000000 -0.000000 -0.000000
-0.000000 -0.000000 -0.000000
-0.000000 -0.000000 -0.000000
-0.000000 -0.000000 -0.000000
-0.000000 -0.000000 -0.000000
-0.000000 -0.000000 -0.000000
-0.000000 -0.000000 -0.000000
-0.000000 -0.000000 -0.000000
-0.164183 -0.024699 0.030023
-0.000000 -0.000000 -0.000000
-0.000000 -0.000000 -0.000000
-0.000000 -0.000000 -0.000000
-0.000000 -0.000000 -0.000000
-0.000000 -0.000000 -0.000000
-0.000000 -0.000000 -0.000000
-0.000000 -0.000000 -0.000000
-0.177057 -0.013408 0.002258
-0.000000 -0.000000 -0.000000
-0.000000 -0.000000 -0.000000
-0.000000 -0.000000 -0.000000
-0.000000 -0.000000 -0.000000
-0.000000 -0.000000 -0.000000
-0.131913 -0.020221 0.068174
-0.000000 -0.000000 -0.000000
-0.000000 -0.000000 -0.000000
-0.000000 -0.000000 -0.000000
-0.118738 -0.029119 0.073004
-0.000000 -0.000000 -0.000000
-0.000000 -0.000000 -0.000000
-0.000000 -0.000000 -0.000000
-0.000000 -0.000000 -0.000000
-0.000000 -0.000000 -0.000000
-0.000000 -0.000000 -0.000000
-0.000000 -0.000000 -0.000000
-0.000000 -0.000000 -0.000000
-0.000000 -0.000000 -0.000000
-0.171143 -0.003969 0.022612
-0.000000 -0.000000 -0.000000
-0.151608 -0.013924 0.053156
-0.000000 -0.000000 -0.000000
-0.000000 -0.000000 -0.000000
-0.000000 -0.000000 -0.000000
-0.000000 -0.000000 -0.000000
-0.000000 -0.000000 -0.000000
-0.000000 -0.000000 -0.000000
-0.000000 -0.000000 -0.000000
-0.000000 -0.000000 -0.000000
-0.000000 -0.000000 -0.000000
-0.000000 -0.000000 -0.000000
-0.000000 -0.000000 -0.000000
-0.000000 -0.000000 -0.000000
-0.000000 -0.000000 -0.000000
-0.142614 -0.032510 0.045976
-0.000000 -0.000000 -0.000000
-0.143073 -0.014633 0.061511
-0.000000 -0.000000 -0.000000
-0.000000 -0.000000 -0.000000
-0.000000 -0.000000 -0.000000
-0.000000 -0.000000 -0.000000
-0.000000 -0.000000 -0.000000
-0.000000 -0.000000 -0.000000
-0.000000 -0.000000 -0.000000
-0.000000 -0.000000 -0.000000
-0.000000 -0.000000 -0.000000
-0.000000 -0.000000 -0.000000
-0.000000 -0.000000 -0.000000
-0.000000 -0.000000 -0.000000
-0.000000 -0.000000 -0.000000
-0.000000 -0.000000 -0.000000
-0.000000 -0.000000 -0.000000
-0.000000 -0.000000 -0.000000
-0.000000 -0.000000 -0.000000
-0.000000 -0.000000 -0.000000
-0.000000 -0.000000 -0.000000
-0.000000 -0.000000 -0.000000
-0.000000 -0.000000 -0.000000
-0.000000 -0.000000 -0.000000
-0.000000 -0.000000 -0.000000
-0.000000 -0.000000 -0.000000
-0.055443 -0.095713 0.007787
-0.000000 -0.000000 -0.000000
-0.000000 -0.000000 -0.000000
-0.000000 -0.000000 -0.000000
-0.000000 -0.000000 -0.000000
-0.073000 -0.087684 0.013149
-0.000000 -0.000000 -0.000000
-0.159448 -0.018597 -0.031507
-0.000000 -0.000000 -0.000000
-0.000000 -0.000000 -0.000000
-0.000000 -0.000000 -0.000000
-0.000000 -0.000000 -0.000000
-0.000000 -0.000000 -0.000000
-0.000000 -0.000000 -0.000000
-0.000000 -0.000000 -0.000000
-0.000000 -0.000000 -0.000000
-0.000000 -0.000000 -0.000000
-0.184821 0.018108 -0.008201
-0.000000 -0.000000 -0.000000
-0.000000 -0.000000 -0.000000
-0.000000 -0.000000 -0.000000
-0.144562 -0.038637 -0.020507
-0.000000 -0.000000 -0.000000
-0.000000 -0.000000 -0.000000
-0.000000 -0.000000 -0.000000
-0.000000 -0.000000 -0.000000
-0.000000 -0.000000 -0.000000
-0.000000 -0.000000 -0.000000
-0.000000 -0.000000 -0.000000
-0.000000 -0.000000 -0.000000
-0.000000 -0.000000 -0.000000
-0.000000 -0.000000 -0.000000
-0.097835 -0.075236 0.004556
-0.000000 -0.000000 -0.000000
-0.000000 -0.000000 -0.000000
-0.113860 -0.067220 -0.006695
-0.000000 -0.000000 -0.000000
-0.187935 0.018997 0.018775
-0.000000 -0.000000 -0.000000
-0.000000 -0.000000 -0.000000
-0.000000 -0.000000 -0.000000
-0.070983 -0.078982 -0.036953
-0.000000 -0.000000 -0.000000
-0.000000 -0.000000 -0.000000
-0.000000 -0.000000 -0.000000
-0.000000 -0.000000 -0.000000
-0.000000 -0.000000 -0.000000
-0.197021 0.035272 -0.018881
-0.000000 -0.000000 -0.000000
-0.000000 -0.000000 -0.000000
-0.000000 -0.000000 -0.000000
-0.203952 0.038052 -0.011258
-0.000000 -0.000000 -0.000000
-0.000000 -0.000000 -0.000000
-0.049998 -0.091727 -0.029405
-0.000000 -0.000000 -0.000000
-0.000000 -0.000000 -0.000000
-0.000000 -0.000000 -0.000000
-0.000000 -0.000000 -0.000000
-0.000000 -0.000000 -0.000000
-0.000000 -0.000000 -0.000000
-0.000000 -0.000000 -0.000000
-0.000000 -0.000000 -0.000000
-0.184048 0.027396 -0.031503
-0.000000 -0.000000 -0.000000
-0.000000 -0.000000 -0.000000
-0.089768 -0.066336 -0.043629
-0.000000 -0.000000 -0.000000
-0.000000 -0.000000 -0.000000
-0.000000 -0.000000 -0.000000
-0.000000 -0.000000 -0.000000
-0.000000 -0.000000 -0.000000
-0.000000 -0.000000 -0.000000
-0.000000 -0.000000 -0.000000
-0.000000 -0.000000 -0.000000
-0.000000 -0.000000 -0.000000
-0.000000 -0.000000 -0.000000
-0.000000 -0.000000 -0.000000
-0.000000 -0.000000 -0.000000
-0.000000 -0.000000 -0.000000
-0.000000 -0.000000 -0.000000
-0.166062 0.015196 -0.044762
-0.000000 -0.000000 -0.000000
-0.000000 -0.000000 -0.000000
-0.000000 -0.000000 -0.000000
-0.000000 -0.000000 -0.000000
-0.000000 -0.000000 -0.000000
-0.000000 -0.000000 -0.000000
-0.000000 -0.000000 -0.000000
-0.000000 -0.000000 -0.000000
-0.000000 -0.000000 -0.000000
-0.000000 -0.000000 -0.000000
-0.141859 -0.011171 -0.054747
-0.000000 -0.000000 -0.000000
-0.000000 -0.000000 -0.000000
-0.000000 -0.000000 -0.000000
-0.000000 -0.000000 -0.000000
-0.000000 -0.000000 -0.000000
0.065798 -0.086731 -0.018210
-0.000000 -0.000000 -0.000000
0.000755 -0.105146 -0.000755
0.137750 -0.022239 -0.000879
-0.000000 -0.000000 -0.000000
-0.000000 -0.000000 -0.000000
-0.146038 -0.036720 0.002814
-0.000000 -0.000000 -0.000000
-0.135941 -0.044245 0.002899
-0.000000 -0.000000 -0.000000
-0.000000 -0.000000 -0.000000
-0.000000 -0.000000 -0.000000
-0.000000 -0.000000 -0.000000
0.010256 -0.096170 0.002060
-0.082919 -0.045773 0.039935
-0.000000 -0.000000 -0.000000
-0.009288 -0.107980 -0.002331
-0.000000 -0.000000 -0.000000
-0.000000 -0.000000 -0.000000
-0.000000 -0.000000 -0.000000
-0.000000 -0.000000 -0.000000
-0.025108 -0.121064 0.000299
-0.000000 -0.000000 -0.000000
-0.000000 -0.000000 -0.000000
0.068367 -0.072921 -0.008664
-0.000000 -0.000000 -0.000000
-0.000000 -0.000000 -0.000000
0.023499 -0.093724 -0.013199
-0.000000 -0.000000 -0.000000
-0.000000 -0.000000 -0.000000
0.017588 -0.101687 -0.024817
-0.000000 -0.000000 -0.000000
-0.000000 -0.000000 -0.000000
-0.039702 -0.089216 0.029930
0.012030 -0.113931 0.025033
-0.000000 -0.000000 -0.000000
-0.000000 -0.000000 -0.000000
0.022334 -0.114992 -0.039849
-0.000000 -0.000000 -0.000000
-0.000000 -0.000000 -0.000000
-0.020992 -0.110526 0.015650
-0.000000 -0.000000 -0.000000
-0.100202 -0.063176 -0.008756
-0.000000 -0.000000 -0.000000
-0.000000 -0.000000 -0.000000
-0.000000 -0.000000 -0.000000
-0.000000 -0.000000 -0.000000
-0.000000 -0.000000 -0.000000
-0.000000 -0.000000 -0.000000
-0.000000 -0.000000 -0.000000
-0.003011 -0.096057 -0.025313
-0.000000 -0.000000 -0.000000
-0.000000 -0.000000 -0.000000
-0.000000 -0.000000 -0.000000
-0.000000 -0.000000 -0.000000
-0.019022 -0.088889 0.050319
-0.000000 -0.000000 -0.000000
-0.041979 -0.117065 -0.025327
-0.000000 -0.000000 -0.000000
-0.000000 -0.000000 -0.000000
-0.000000 -0.000000 -0.000000
0.002936 -0.103309 -0.002785
-0.000000 -0.000000 -0.000000
-0.000000 -0.000000 -0.000000
-0.000000 -0.000000 -0.000000
-0.000000 -0.000000 -0.000000
-0.000000 -0.000000 -0.000000
-0.000000 -0.000000 -0.000000
-0.000000 -0.000000 -0.000000
-0.005832 -0.101356 -0.029076
-0.000000 -0.000000 -0.000000
-0.000000 -0.000000 -0.000000
-0.000000 -0.000000 -0.000000
-0.000000 -0.000000 -0.000000
-0.000000 -0.000000 -0.000000
-0.000000 -0.000000 -0.000000
-0.000000 -0.000000 -0.000000
-0.000000 -0.000000 -0.000000
-0.000000 -0.000000 -0.000000
-0.154168 0.000149 0.034625
-0.000000 -0.000000 -0.000000
-0.000000 -0.000000 -0.000000
-0.184038 0.008877 0.017123
0.101376 -0.047319 0.032557
-0.000000 -0.000000 -0.000000
-0.000000 -0.000000 -0.000000
-0.000000 -0.000000 -0.000000
-0.187309 0.021819 0.007544
-0.000000 -0.000000 -0.000000
-0.000000 -0.000000 -0.000000
-0.000000 -0.000000 -0.000000
-0.000000 -0.000000 -0.000000
-0.000000 -0.000000 -0.000000
-0.000000 -0.000000 -0.000000
-0.000000 -0.000000 -0.000000
-0.000000 -0.000000 -0.000000
-0.000000 -0.000000 -0.000000
-0.000000 -0.000000 -0.000000
-0.000000 -0.000000 -0.000000
-0.000000 -0.000000 -0.000000
-0.000000 -0.000000 -0.000000
-0.005178 -0.113797 0.014802
-0.000000 -0.000000 -0.000000
-0.000000 -0.000000 -0.000000
-0.000000 -0.000000 -0.000000
-0.000000 -0.000000 -0.000000
-0.000000 -0.000000 -0.000000
-0.000000 -0.000000 -0.000000
-0.000000 -0.000000 -0.000000
-0.071848 -0.108475 0.002980
-0.000000 -0.000000 -0.000000
-0.000000 -0.000000 -0.000000
-0.000000 -0.000000 -0.000000
-0.000000 -0.000000 -0.000000
-0.000000 -0.000000 -0.000000
-0.000000 -0.000000 -0.000000
-0.000000 -0.000000 -0.000000
-0.029944 -0.077726 0.031784
-0.000000 -0.000000 -0.000000
-0.000000 -0.000000 -0.000000
-0.000000 -0.000000 -0.000000
-0.059922 -0.059615 0.064028
-0.000000 -0.000000 -0.000000
-0.000000 -0.000000 -0.000000
-0.022521 -0.122660 0.010137
-0.000000 -0.000000 -0.000000
-0.000000 -0.000000 -0.000000
-0.000000 -0.000000 -0.000000
-0.019109 -0.115642 0.009404
-0.000000 -0.000000 -0.000000
-0.000000 -0.000000 -0.000000
-0.144909 -0.041617 -0.016156
-0.000000 -0.000000 -0.000000
-0.000000 -0.000000 -0.000000
0.035326 -0.132959 0.019401
-0.000000 -0.000000 -0.000000
-0.106759 -0.042077 0.026464
-0.164625 -0.029210 -0.005102
-0.000000 -0.000000 -0.000000
-0.000000 -0.000000 -0.000000
0.035982 -0.109729 -0.041002
0.087091 -0.091281 0.022715
-0.000000 -0.000000 -0.000000
-0.000000 -0.000000 -0.000000
-0.000000 -0.000000 -0.000000
-0.171147 -0.014264 -0.017674
-0.000000 -0.000000 -0.000000
-0.000000 -0.000000 -0.000000
-0.000000 -0.000000 -0.000000
-0.000000 -0.000000 -0.000000
-0.000000 -0.000000 -0.000000
-0.000000 -0.000000 -0.000000
-0.000000 -0.000000 -0.000000
-0.000000 -0.000000 -0.000000
-0.000000 -0.000000 -0.000000
-0.013886 -0.099900 0.024252
-0.032601 -0.100608 0.024589
-0.000000 -0.000000 -0.000000
-0.015934 -0.092588 -0.011099
-0.000000 -0.000000 -0.000000
-0.000000 -0.000000 -0.000000
-0.000000 -0.000000 -0.000000
-0.000000 -0.000000 -0.000000
-0.000000 -0.000000 -0.000000
-0.000000 -0.000000 -0.000000
-0.000000 -0.000000 -0.000000
-0.000000 -0.000000 -0.000000
-0.000000 -0.000000 -0.000000
-0.000000 -0.000000 -0.000000
-0.000000 -0.000000 -0.000000
-0.000000 -0.000000 -0.000000
-0.116475 -0.043662 -0.022252
-0.000000 -0.000000 -0.000000
-0.000000 -0.000000 -0.000000
-0.000000 -0.000000 -0.000000
-0.000000 -0.000000 -0.000000
-0.000000 -0.000000 -0.000000
-0.000000 -0.000000 -0.000000
-0.000000 -0.000000 -0.000000
-0.000000 -0.000000 -0.000000
-0.002937 -0.107564 0.001462
-0.000000 -0.000000 -0.000000
-0.000000 -0.000000 -0.000000
-0.000000 -0.000000 -0.000000
-0.000000 -0.000000 -0.000000
-0.000000 -0.000000 -0.000000
-0.000000 -0.000000 -0.000000
-0.000000 -0.000000 -0.000000
-0.000000 -0.000000 -0.000000
-0.000000 -0.000000 -0.000000
-0.000000 -0.000000 -0.000000
-0.000000 -0.000000 -0.000000
-0.000000 -0.000000 -0.000000
-0.000000 -0.000000 -0.000000
-0.135292 -0.005107 0.062960
-0.000000 -0.000000 -0.000000
-0.000000 -0.000000 -0.000000
-0.000000 -0.000000 -0.000000
-0.000000 -0.000000 -0.000000
0.013105 -0.095720 -0.024173
-0.000000 -0.000000 -0.000000
-0.000000 -0.000000 -0.000000
-0.000000 -0.000000 -0.000000
0.004996 -0.098922 -0.005844
-0.000000 -0.000000 -0.000000
-0.000000 -0.000000 -0.000000
0.061603 -0.137021 0.011781
-0.000000 -0.000000 -0.000000
-0.000000 -0.000000 -0.000000
-0.000000 -0.000000 -0.000000
-0.000000 -0.000000 -0.000000
-0.000000 -0.000000 -0.000000
-0.000000 -0.000000 -0.000000
-0.000000 -0.000000 -0.000000
-0.000000 -0.000000 -0.000000
-0.000000 -0.000000 -0.000000
-0.010919 -0.089496 0.061400
-0.000000 -0.000000 -0.000000
-0.000000 -0.000000 -0.000000
-0.000000 -0.000000 -0.000000
-0.000000 -0.000000 -0.000000
0.088477 -0.067102 0.007856
-0.000000 -0.000000 -0.000000
-0.000000 -0.000000 -0.000000
-0.000000 -0.000000 -0.000000
-0.173196 0.034928 -0.014529
-0.000000 -0.000000 -0.000000
-0.000000 -0.000000 -0.000000
-0.000000 -0.000000 -0.000000
0.119665 -0.066273 0.014923
-0.000000 -0.000000 -0.000000
-0.000000 -0.000000 -0.000000
-0.000000 -0.000000 -0.000000
-0.000000 -0.000000 -0.000000
0.014957 -0.091419 0.011150
-0.000000 -0.000000 -0.000000
-0.000000 -0.000000 -0.000000
-0.000000 -0.000000 -0.000000
-0.000000 -0.000000 -0.000000
-0.000000 -0.000000 -0.000000
-0.000000 -0.000000 -0.000000
-0.000000 -0.000000 -0.000000
-0.000000 -0.000000 -0.000000
-0.000000 -0.000000 -0.000000
-0.025021 -0.109393 -0.010551
-0.000000 -0.000000 -0.000000
-0.000000 -0.000000 -0.000000
-0.000000 -0.000000 -0.000000
-0.000000 -0.000000 -0.000000
-0.000000 -0.000000 -0.000000
-0.000000 -0.000000 -0.000000
-0.000000 -0.000000 -0.000000
-0.000000 -0.000000 -0.000000
-0.000000 -0.000000 -0.000000
-0.000000 -0.000000 -0.000000
-0.000000 -0.000000 -0.000000
-0.000000 -0.000000 -0.000000
-0.000000 -0.000000 -0.000000
-0.000000 -0.000000 -0.000000
-0.000000 -0.000000 -0.000000
-0.000000 -0.000000 -0.000000
-0.000000 -0.000000 -0.000000
-0.000000 -0.000000 -0.000000
-0.000000 -0.000000 -0.000000
0.094566 -0.062204 -0.017862
-0.000000 -0.000000 -0.000000
-0.000000 -0.000000 -0.000000
-0.024026 -0.092217 0.040694
-0.000000 -0.000000 -0.000000
-0.000000 -0.000000 -0.000000
-0.000000 -0.000000 -0.000000
-0.000000 -0.000000 -0.000000
-0.174840 -0.004743 -0.013936
-0.000000 -0.000000 -0.000000
-0.000000 -0.000000 -0.000000
-0.000000 -0.000000 -0.000000
-0.000000 -0.000000 -0.000000
-0.059609 -0.081162 0.024692
-0.091135 -0.075457 0.018657
-0.066447 -0.086405 0.019597
-0.000000 -0.000000 -0.000000
-0.000000 -0.000000 -0.000000
-0.000000 -0.000000 -0.000000
-0.000000 -0.000000 -0.000000
0.146579 -0.029119 -0.002016
-0.000000 -0.000000 -0.000000
-0.000000 -0.000000 -0.000000
-0.000000 -0.000000 -0.000000
-0.000000 -0.000000 -0.000000
0.008921 -0.120703 0.008866
-0.000000 -0.000000 -0.000000
-0.000000 -0.000000 -0.000000
-0.000000 -0.000000 -0.000000
-0.000000 -0.000000 -0.000000
-0.000000 -0.000000 -0.000000
-0.041230 -0.061027 -0.079965
-0.000000 -0.000000 -0.000000
-0.000000 -0.000000 -0.000000
0.044214 -0.117675 -0.048463
0.045875 -0.130109 -0.032311
-0.000000 -0.000000 -0.000000
-0.000000 -0.000000 -0.000000
-0.000000 -0.000000 -0.000000
-0.000000 -0.000000 -0.000000
-0.145553 -0.033109 0.010598
-0.000000 -0.000000 -0.000000
-0.000000 -0.000000 -0.000000
-0.000000 -0.000000 -0.000000
-0.000000 -0.000000 -0.000000
-0.000000 -0.000000 -0.000000
0.063877 -0.091695 0.021116
-0.000000 -0.000000 -0.000000
0.000565 -0.107642 0.008311
-0.000000 -0.000000 -0.000000
-0.000000 -0.000000 -0.000000
-0.000000 -0.000000 -0.000000
-0.000000 -0.000000 -0.000000
-0.145288 -0.004136 -0.054126
-0.153155 -0.005456 -0.042721
-0.004539 -0.099040 0.010792
-0.000000 -0.000000 -0.000000
-0.000000 -0.000000 -0.000000
-0.000000 -0.000000 -0.000000
-0.000000 -0.000000 -0.000000
-0.000000 -0.000000 -0.000000
-0.000000 -0.000000 -0.000000
-0.000000 -0.000000 -0.000000
-0.000000 -0.000000 -0.000000
-0.000000 -0.000000 -0.000000
0.074148 -0.069084 -0.023143
-0.000000 -0.000000 -0.000000
-0.000000 -0.000000 -0.000000
-0.008031 -0.104564 0.019845
-0.016574 -0.099089 0.019073
-0.000000 -0.000000 -0.000000
-0.000000 -0.000000 -0.000000
-0.000000 -0.000000 -0.000000
0.071774 -0.073907 0.050950
-0.000000 -0.000000 -0.000000
-0.014521 -0.091366 -0.022556
-0.031588 -0.095109 -0.023082
0.012769 -0.105613 -0.011317
-0.000000 -0.000000 -0.000000
-0.000000 -0.000000 -0.000000
-0.000000 -0.000000 -0.000000
-0.030362 -0.073259 -0.047030
-0.000000 -0.000000 -0.000000
-0.000000 -0.000000 -0.000000
-0.191023 0.024094 0.010161
-0.000000 -0.000000 -0.000000
-0.058345 -0.086741 -0.023595
-0.000000 -0.000000 -0.000000
-0.000000 -0.000000 -0.000000
-0.004477 -0.096471 -0.034561
-0.000000 -0.000000 -0.000000
-0.000000 -0.000000 -0.000000
-0.000000 -0.000000 -0.000000
-0.000000 -0.000000 -0.000000
-0.000000 -0.000000 -0.000000
-0.000000 -0.000000 -0.000000
-0.000000 -0.000000 -0.000000
-0.000000 -0.000000 -0.000000
-0.000000 -0.000000 -0.000000
-0.000000 -0.000000 -0.000000
-0.000000 -0.000000 -0.000000