# vtk DataFile Version 2.0
Simplicial Mesh Example
ASCII
DATASET UNSTRUCTURED_GRID
POINTS 3683 double
1.986821e+04 -5.381142e+04 -2.444547e+05
2.754305e+04 -6.047915e+04 -2.421814e+05
-2.592402e+04 -2.275866e+04 -2.486847e+05
-1.231648e+04 -2.896503e+04 -2.490636e+05
-1.503178e+04 -3.535012e+04 -2.481037e+05
-2.735594e+03 -4.127096e+04 -2.476237e+05
-2.929092e+04 -2.844691e+04 -2.477418e+05
-3.924484e+04 -2.048011e+04 -2.471745e+05
-4.324984e+04 -2.580469e+04 -2.460284e+05
2.240187e+04 -6.575375e+04 -2.413438e+05
1.523784e+04 -5.948509e+04 -2.434824e+05
6.320541e+03 -5.134972e+04 -2.456868e+05
1.057231e+04 -4.502028e+04 -2.467650e+05
2.787925e+04 -7.089884e+04 -2.393464e+05
-5.767840e+04 -1.603372e+04 -2.439466e+05
-5.422052e+04 -2.345285e+04 -2.441298e+05
-4.966467e+04 -1.820423e+04 -2.455147e+05
-6.255946e+04 -2.118270e+04 -2.423771e+05
3.325286e+04 -6.583601e+04 -2.400994e+05
7.429038e+02 -3.483565e+04 -2.486103e+05
-4.200168e+04 3.134026e+04 -2.455551e+05
-4.301087e+04 4.204277e+04 -2.437852e+05
2.457246e+04 -1.915875e+04 -2.490992e+05
1.429383e+04 -6.836967e+03 -2.505158e+05
-1.085970e+04 1.000721e+04 -2.505720e+05
-1.448654e+04 3.694487e+03 -2.505691e+05
3.114128e+04 -3.719210e+04 -2.463496e+05
4.445639e+04 -4.250372e+04 -2.434912e+05
3.543527e+04 -3.080416e+04 -2.466528e+05
4.799761e+04 -5.585188e+04 -2.401601e+05
3.961309e+04 -4.836576e+04 -2.432288e+05
1.047112e+04 -1.370904e+04 -2.504232e+05
-1.450476e+03 -3.412488e+03 -2.509801e+05
-2.966752e+04 2.952649e+04 -2.475247e+05
-3.440684e+04 2.362896e+04 -2.475607e+05
-2.134066e+04 1.965381e+04 -2.493370e+05
1.720211e+03 3.129745e+03 -2.509787e+05
-2.567211e+04 1.329779e+04 -2.493614e+05
-3.691634e+04 3.679978e+04 -2.455948e+05
-4.827419e+04 3.674257e+04 -2.436795e+05
5.317486e+04 -5.050758e+04 -2.402619e+05
2.049350e+04 -2.584124e+04 -2.488635e+05
5.588756e+04 -5.973946e+04 -2.375666e+05
1.480707e-11 2.693798e-11 -2.510054e+05
6.117126e+04 -5.444706e+04 -2.375487e+05
6.323417e+04 1.221531e+03 -2.430787e+05
6.667308e+04 -6.400663e+03 -2.420960e+05
5.714245e+04 -3.360836e+03 -2.445339e+05
2.880722e+04 2.480136e+04 -2.481608e+05
1.516033e+04 3.115870e+04 -2.486224e+05
2.205152e+04 2.031079e+04 -2.492361e+05
5.318466e+04 8.142986e+03 -2.452980e+05
7.195964e+04 -1.020234e+03 -2.406858e+05
4.121693e+04 1.630519e+04 -2.471454e+05
4.632762e+04 4.022283e+03 -2.467565e+05
-2.542531e+03 4.860973e+04 -2.462542e+05
5.728589e+03 4.123748e+04 -2.475419e+05
-5.778877e+01 3.665181e+04 -2.483174e+05
3.436853e+04 1.240735e+04 -2.483890e+05
-8.147705e+03 4.368523e+04 -2.470464e+05
-9.741254e+03 5.334571e+04 -2.450970e+05
7.906131e+04 1.544280e+03 -2.384818e+05
7.423707e+04 -3.766747e+03 -2.399794e+05
-1.507227e+04 4.821730e+04 -2.458841e+05
8.900013e+03 2.672817e+04 -2.494251e+05
5.735452e+04 2.707378e+04 -2.430301e+05
6.225524e+04 3.213859e+04 -2.412339e+05
5.060855e+04 4.046262e+04 -2.426670e+05
2.070329e+04 7.478275e+04 -2.388577e+05
7.823675e+03 7.851986e+04 -2.383972e+05
1.551779e+04 7.003519e+04 -2.406441e+05
6.741785e+04 2.169635e+04 -2.410157e+05
7.223127e+04 2.679160e+04 -2.391331e+05
2.532800e+04 5.947904e+04 -2.426462e+05
3.998511e+04 5.196744e+04 -2.424414e+05
3.042654e+04 6.432568e+04 -2.408564e+05
1.309492e+04 8.316557e+04 -2.366219e+05
7.995749e+04 2.325007e+04 -2.370670e+05
7.528121e+04 1.810934e+04 -2.390087e+05
4.562059e+04 3.544894e+04 -2.443989e+05
3.494131e+04 4.702911e+04 -2.441856e+05
2.123594e+03 8.495952e+04 -2.363149e+05
7.393273e+03 8.960160e+04 -2.345245e+05
-1.341907e+05 1.960956e+05 -8.431055e+04
-1.220708e+05 2.052173e+05 -8.087542e+04
-1.225239e+05 1.984311e+05 -9.567109e+04
8.307538e+04 -1.668068e+04 -2.365792e+05
-1.425170e+05 1.614269e+05 1.304285e+05
-1.401741e+05 1.722542e+05 1.186944e+05
-1.303437e+05 1.622831e+05 1.417303e+05
-1.283651e+05 1.731870e+05 1.302208e+05
4.718789e+04 1.520951e+05 -1.950355e+05
2.122407e+05 -8.830456e+04 1.037475e+05
2.037934e+05 -9.336022e+04 1.154868e+05
-2.223860e+05 -1.160963e+05 2.699268e+04
2.323624e+05 4.931916e+04 8.412236e+04
2.299042e+05 6.680333e+04 7.862097e+04
2.264406e+05 4.648780e+04 1.003849e+05
2.260996e+05 5.981789e+04 9.381098e+04
1.661062e+05 1.553164e+05 -1.091968e+05
1.551959e+05 1.570899e+05 -1.219559e+05
1.670886e+05 1.441289e+05 -1.222162e+05
-1.804551e+05 -1.439466e+05 -1.019093e+05
-1.911324e+05 -1.360317e+05 -9.303475e+04
-1.778672e+05 -1.379303e+05 -1.139605e+05
-1.860944e+05 -1.243231e+05 -1.164348e+05
-1.458376e+05 -1.653240e+05 1.219858e+05
-1.138367e+04 1.543730e+05 -1.983510e+05
6.130132e+04 -1.370061e+05 2.021644e+05
5.654354e+04 -1.480726e+05 1.956980e+05
4.552456e+04 -1.402398e+05 2.040788e+05
5.046965e+04 -1.287468e+05 2.103522e+05
-1.278983e+05 -1.935254e+05 9.827655e+04
-9.142281e+04 -1.791955e+05 1.510610e+05
-1.056458e+05 -1.768876e+05 1.445025e+05
-1.021004e+05 -1.685607e+05 1.564492e+05
-9.854341e+04 -2.317444e+05 -1.076300e+04
-8.556565e+04 -2.370997e+05 -3.233331e+03
-9.863299e+04 -2.319551e+05 4.296893e+03
-3.584148e+04 1.397630e+05 -2.060767e+05
-1.780232e+05 3.740569e+04 -1.744957e+05
-1.839490e+05 2.549131e+04 -1.704715e+05
-3.966134e+04 1.026084e+04 -2.477153e+05
-4.693318e+04 1.414053e+02 -2.466936e+05
-2.437760e+04 2.264947e+05 1.072972e+05
-3.940161e+04 2.268070e+05 1.020258e+05
-2.395441e+04 2.330065e+05 9.240151e+04
-9.975581e+03 2.364254e+05 8.616950e+04
-1.017433e+04 2.302283e+05 1.015181e+05
-2.133075e+05 -1.246884e+05 -5.163753e+04
-2.045353e+05 -1.352779e+05 -5.987307e+04
-2.119308e+05 -1.214806e+05 -6.355204e+04
-2.029577e+05 -1.316078e+05 -7.212481e+04
-2.102725e+05 -1.176142e+05 -7.520141e+04
2.103164e+05 -1.189102e+05 7.267791e+04
1.053396e+05 1.604511e+05 -1.635958e+05
9.128341e+04 1.597919e+05 -1.723474e+05
5.879933e+04 1.961774e+05 1.468192e+05
-1.487497e+05 1.876910e+05 7.843741e+04
1.076488e+05 1.074985e+05 -2.006939e+05
1.212594e+05 9.395148e+04 -1.996398e+05
1.222573e+05 -3.365621e+03 -2.197608e+05
1.092114e+05 -2.442486e+04 -2.252282e+05
1.231263e+05 -1.916554e+04 -2.185461e+05
1.062329e+05 -1.044916e+04 -2.276402e+05
1.098618e+05 2.910325e+03 -2.261207e+05
6.110805e+04 -2.328122e+05 -7.512886e+04
7.444722e+04 -2.315974e+05 -6.637465e+04
7.810959e+04 -2.229260e+05 -8.817700e+04
7.612602e+04 -2.275844e+05 -7.739282e+04
6.303063e+04 -2.282921e+05 -8.652308e+04
-2.353727e+05 7.978789e+04 -4.659276e+04
-7.975312e+04 2.385564e+05 -1.632518e+04
7.292972e+04 -1.411873e+04 -2.399983e+05
6.493937e+04 -2.606475e+04 -2.412640e+05
7.814805e+04 -2.756432e+04 -2.372343e+05
-6.683323e+04 2.429064e+05 -6.812545e+03
5.995248e+04 -1.511724e+04 -2.434351e+05
-3.991087e+04 2.195792e+05 1.166676e+05
-5.567912e+04 2.185508e+05 1.120673e+05
-2.061418e+05 -1.392612e+05 4.198435e+04
-2.146618e+05 -1.280720e+05 3.431435e+04
-1.356947e+04 -2.441479e+05 6.060499e+04
-1.197893e+04 -2.403515e+05 7.430206e+04
1.405657e+03 -2.430351e+05 6.610205e+04
-2.124573e+05 -1.228965e+05 5.843563e+04
-2.049920e+05 -1.365731e+05 5.451442e+04
2.877318e+04 3.786639e+04 -2.465278e+05
6.520556e+04 -2.231402e+05 -9.761418e+04
1.613910e+05 1.750614e+05 -8.325062e+04
1.706156e+05 1.721130e+05 -6.992329e+04
1.742150e+05 1.626347e+05 -8.268178e+04
-7.215061e+04 -2.054878e+05 1.260493e+05
-5.733413e+04 -2.063734e+05 1.319816e+05
-6.902820e+04 -1.981348e+05 1.387808e+05
-1.194464e+05 1.514999e+05 -1.622121e+05
-1.202949e+05 1.624862e+05 -1.505430e+05
-1.055755e+05 1.518887e+05 -1.711911e+05
-1.064018e+05 1.631897e+05 -1.599410e+05
2.178405e+05 -1.267803e+05 1.281107e+04
2.251474e+05 -1.137613e+05 6.299394e+03
2.227768e+05 -1.159976e+05 2.453372e+04
2.144615e+05 -1.300089e+05 2.845636e+04
-2.031517e+05 3.411385e+04 1.451258e+05
8.137481e+04 -6.650184e+03 -2.376343e+05
6.357186e+04 2.442079e+05 -1.623271e+03
7.609505e+04 2.404797e+05 8.061408e+03
7.868550e+04 2.197321e+05 -9.542666e+04
6.451399e+04 2.200194e+05 -1.047444e+05
8.011136e+04 2.119579e+05 -1.105925e+05
9.339104e+04 2.113647e+05 -1.010166e+05
1.203674e+05 1.219710e+05 -1.847716e+05
1.218992e+05 1.081118e+05 -1.920957e+05
-1.161018e+05 -1.658728e+05 1.495634e+05
-2.294659e+05 1.037481e+05 -2.332879e+04
-1.124409e+05 -1.572730e+05 1.611689e+05
-2.268949e+05 1.044191e+05 -3.929578e+04
-2.199278e+05 1.169666e+05 -4.290426e+04
-2.236165e+05 1.148211e+05 -2.732895e+04
-2.165443e+05 1.268600e+05 -3.027066e+04
-2.119525e+05 1.297679e+05 -4.565808e+04
-1.972791e+05 1.063182e+05 -1.156089e+05
-1.888032e+05 1.051301e+05 -1.298159e+05
2.297734e+05 -1.025909e+05 1.874055e+04
2.341399e+05 -8.989045e+04 2.756429e+04
2.273143e+05 -1.038562e+05 3.486543e+04
4.603626e+04 1.591119e+05 1.896655e+05
4.500948e+04 1.714265e+05 1.789714e+05
2.497017e+05 -3.661832e+04 5.397319e+02
1.575871e+05 7.902969e+04 -1.797473e+05
9.856580e+04 6.541731e+04 -2.219304e+05
-1.789340e+05 -1.405376e+05 1.087825e+05
-1.674839e+05 -1.472796e+05 1.175671e+05
-1.582537e+05 -1.598293e+05 1.137420e+05
-1.701131e+05 -1.534697e+05 1.052405e+05
-1.982746e+05 4.281760e+04 -1.498196e+05
-2.002477e+05 1.701103e+04 -1.523045e+05
-2.093325e+05 1.747398e+04 -1.395982e+05
-1.941711e+05 2.878021e+04 -1.582575e+05
-2.038907e+05 3.167274e+04 -1.450188e+05
-2.127951e+05 3.172041e+04 -1.317119e+05
2.088336e+05 -1.025099e+05 9.741225e+04
2.192424e+05 -8.826153e+04 8.812818e+04
1.528214e+05 1.899604e+05 6.465066e+04
1.657230e+05 1.788610e+05 6.445293e+04
1.895550e+05 1.247612e+05 1.096458e+05
1.904886e+05 1.127449e+05 1.204156e+05
1.448353e+05 -1.910373e+05 7.856657e+04
-6.468008e+04 -1.521081e+05 1.895562e+05
-4.934001e+04 -1.519234e+05 1.942495e+05
-5.378609e+04 -1.622933e+05 1.844048e+05
1.354820e+05 -1.902211e+05 9.519169e+04
1.221173e+05 -1.982191e+05 9.683339e+04
2.520688e+05 1.279944e+04 2.769881e+03
2.523870e+05 -4.362132e+03 -1.758746e+03
3.188037e+04 -2.050399e+05 1.426990e+05
4.759698e+04 -2.013723e+05 1.436810e+05
3.542654e+04 -1.968719e+05 1.530390e+05
6.970462e+04 6.005166e+04 -2.338870e+05
7.538273e+04 7.404321e+04 -2.281560e+05
-1.875943e+05 1.395641e+05 -9.450981e+04
-1.788629e+05 1.500228e+05 -9.531322e+04
6.617526e+04 -1.255671e+05 2.079172e+05
[...]
POINT_DATA 3683
VECTORS displacement double
-0.508744 0.025543 0.088652
-0.496923 0.013799 0.113452
-0.498526 -0.039725 -0.070597
-0.518871 0.017205 -0.043762
-0.516334 0.019781 -0.052247
-0.525680 0.044234 -0.003861
-0.490303 -0.039710 -0.082216
-0.463685 -0.094095 -0.075035
-0.450825 -0.097154 -0.089312
-0.508896 0.033638 0.097969
-0.517629 0.042406 0.073513
-0.522987 0.049120 0.037391
-0.518266 0.037039 0.054507
-0.500009 0.026385 0.115591
-0.394277 -0.162292 -0.061882
-0.408966 -0.139590 -0.085265
-0.427135 -0.133799 -0.069611
-0.372014 -0.169881 -0.077784
-0.485606 0.004940 0.130633
-0.524283 0.038601 0.011594
-0.464575 -0.088043 0.096617
-0.465190 -0.069509 0.115948
-0.490732 -0.054227 0.072566
-0.509166 -0.043198 0.033907
-0.522107 -0.018953 0.022789
-0.519322 -0.039575 0.008066
-0.480309 -0.039306 0.109454
-0.440330 -0.077396 0.135333
-0.465124 -0.069808 0.106086
-0.433682 -0.062134 0.156189
-0.459545 -0.047179 0.135341
-0.514736 -0.010903 0.044251
-0.523095 0.008856 -0.000835
-0.501449 -0.047070 0.079021
-0.487317 -0.076108 0.073641
-0.514778 -0.038323 0.052780
-0.521915 -0.007895 -0.009706
-0.505482 -0.065244 0.042023
-0.483139 -0.058189 0.100003
-0.443467 -0.098874 0.112782
-0.411273 -0.091663 0.156409
-0.501009 -0.023913 0.077664
-0.405328 -0.081978 0.170835
-0.522548 -0.007978 -0.003644
-0.379762 -0.111617 0.169321
-0.342940 -0.205502 -0.002107
-0.328727 -0.213245 0.029806
-0.373040 -0.187708 0.017024
-0.478097 -0.063872 -0.081606
-0.512841 -0.001877 -0.061480
-0.494995 -0.047579 -0.064845
-0.387678 -0.173715 -0.031354
-0.300489 -0.229075 0.007732
-0.435869 -0.125971 -0.063187
-0.416674 -0.156054 -0.014858
-0.536500 0.040069 0.003128
-0.528064 0.030385 -0.028880
-0.531422 0.029812 -0.006989
-0.459167 -0.109527 -0.048603
-0.533093 0.031545 0.025251
-0.537658 0.038976 0.031709
-0.262379 -0.247772 -0.003150
-0.289605 -0.234665 0.018777
-0.531262 0.025314 0.051719
-0.520836 0.008540 -0.040956
-0.370587 -0.160007 -0.100366
-0.349215 -0.165975 -0.115811
-0.404024 -0.108466 -0.131318
-0.520469 0.039777 -0.086471
-0.546508 0.060098 -0.039313
-0.529034 0.044578 -0.066947
-0.321781 -0.200589 -0.082704
-0.297944 -0.206612 -0.099579
-0.499903 0.011815 -0.101049
-0.448771 -0.046243 -0.133434
-0.488011 0.004509 -0.116081
-0.541809 0.058119 -0.058834
-0.256592 -0.233382 -0.086923
-0.280991 -0.227292 -0.068802
-0.422343 -0.101460 -0.117734
-0.464284 -0.038423 -0.119708
-0.556205 0.067446 -0.016641
-0.554076 0.067631 -0.037095
-0.098549 -0.052090 0.283398
-0.174034 -0.037250 0.266679
-0.166810 -0.044422 0.268710
-0.248058 -0.248224 0.069033
-0.026748 0.078649 0.265886
-0.046810 0.060992 0.269280
-0.103519 0.068857 0.251314
-0.119877 0.052626 0.253586
-0.490722 0.039211 -0.154021
0.547322 0.209192 0.213215
0.480692 0.221007 0.225428
0.591217 0.041932 -0.242181
0.732001 0.196126 -0.125205
0.705094 0.177409 -0.164917
0.683703 0.229064 -0.119222
0.678118 0.210368 -0.150823
0.152101 -0.124453 -0.307488
0.077652 -0.121766 -0.305589
0.167128 -0.148253 -0.300296
0.239000 -0.138396 -0.276000
0.324605 -0.142710 -0.269278
0.224476 -0.154701 -0.270000
0.298015 -0.179012 -0.256789
0.020950 0.098339 -0.274676
-0.586800 0.079762 0.027311
-0.375349 0.032318 0.186350
-0.391251 0.017658 0.177843
-0.424546 0.005428 0.151765
-0.411670 0.018863 0.161586
-0.106572 0.045050 -0.260453
-0.295765 0.030584 -0.202476
-0.222724 0.049314 -0.228294
-0.242426 0.054493 -0.221003
-0.296429 -0.010195 -0.207215
-0.351315 -0.010092 -0.181265
-0.294680 -0.008954 -0.207988
-0.541975 0.057370 0.104747
0.317835 -0.337968 0.110924
0.364117 -0.344764 0.077815
-0.467056 -0.116672 0.035458
-0.439911 -0.143485 -0.002836
-0.499210 -0.033560 0.036888
-0.479948 -0.027337 0.076844
-0.503460 -0.029649 0.036177
-0.511951 -0.030507 0.000085
-0.509123 -0.034622 0.000526
0.505431 -0.098975 -0.253999
0.428161 -0.103820 -0.268274
0.495843 -0.120204 -0.249965
0.418603 -0.123787 -0.263976
0.485817 -0.141142 -0.245000
0.511841 0.134349 0.265023
-0.224475 -0.061442 -0.266996
-0.299059 -0.037207 -0.246460
-0.401400 -0.016162 -0.173521
-0.004256 0.035173 0.287129
-0.168477 -0.143937 -0.254083
-0.073584 -0.199411 -0.246699
-0.013085 -0.335967 0.016019
-0.103362 -0.299183 0.091904
-0.015750 -0.329045 0.071823
-0.112285 -0.305529 0.043725
-0.086013 -0.315503 -0.006782
-0.415796 0.005438 0.165948
-0.370151 -0.001138 0.193773
-0.357686 -0.000259 0.200779
-0.364867 -0.000410 0.196820
-0.410483 0.007428 0.169329
0.692271 -0.115129 0.187811
-0.400096 -0.005242 0.177315
-0.300190 -0.224850 0.060379
-0.346101 -0.183842 0.104387
-0.280094 -0.220693 0.108690
-0.447512 -0.004557 0.146039
-0.364382 -0.185446 0.065058
-0.475925 -0.029736 0.077247
-0.441799 -0.023325 0.117569
0.453220 0.059758 -0.274107
0.524637 0.051752 -0.259937
-0.509891 -0.031314 -0.013905
-0.509678 -0.033922 -0.007844
-0.509463 -0.031010 0.026607
0.512389 0.094192 -0.253684
0.447087 0.080112 -0.271421
-0.480367 -0.034964 -0.099063
-0.404447 0.008563 0.172802
0.108283 -0.083106 -0.316004
0.172773 -0.078875 -0.318506
0.203227 -0.099842 -0.313989
-0.380360 -0.009423 -0.160573
-0.428958 -0.021343 -0.124957
-0.390249 -0.008009 -0.153265
-0.158758 -0.095664 0.263360
-0.160325 -0.082743 0.265806
-0.239803 -0.071727 0.247090
-0.241605 -0.060568 0.248374
0.560584 0.023856 0.273253
0.627915 0.011770 0.252713
0.607183 0.047927 0.256139
0.532007 0.052141 0.277952
0.487205 0.287072 0.087969
-0.252779 -0.252036 0.030033
-0.403473 0.000554 -0.172629
-0.358103 -0.001089 -0.199626
-0.354069 0.005604 -0.212853
-0.409825 0.018455 -0.182873
-0.350168 0.004166 -0.217893
-0.289018 -0.008967 -0.243211
-0.109985 -0.144263 -0.271194
-0.086135 -0.172998 -0.261210
-0.163815 0.074426 -0.242288
0.627406 -0.060324 0.231508
-0.187106 0.080304 -0.234109
0.608784 -0.091905 0.234133
0.547312 -0.093848 0.255516
0.575172 -0.065810 0.250230
0.512014 -0.067597 0.268477
0.477462 -0.091987 0.274441
0.401959 -0.209128 0.249450
0.342312 -0.222373 0.248508
0.672088 0.038689 0.232337
0.715597 0.060004 0.208330
0.651701 0.071977 0.235619
-0.424598 -0.016924 -0.146814
-0.433851 -0.023177 -0.142650
0.865225 0.001217 0.088857
0.172915 -0.280795 -0.217212
-0.176044 -0.205231 -0.199474
0.255377 0.138009 -0.274481
0.171484 0.131987 -0.276309
0.104459 0.109336 -0.280296
0.188013 0.117095 -0.282105
0.457036 -0.315611 0.119378
0.481124 -0.332621 0.052559
0.545390 -0.316573 0.052607
0.434472 -0.333325 0.085051
0.501137 -0.317344 0.090050
0.565710 -0.299188 0.089452
0.513752 0.186925 0.240490
0.601557 0.183455 0.210858
0.049920 0.049312 -0.311941
0.140160 0.061863 -0.315675
0.356792 0.172826 -0.274886
0.374838 0.200461 -0.258920
0.016269 0.060377 0.312564
-0.417252 0.017875 -0.144610
-0.462822 -0.002338 -0.106156
-0.447126 -0.002071 -0.117135
-0.036888 0.063995 0.304192
-0.114956 0.049253 0.290730
0.887628 0.008959 -0.032946
0.890442 -0.003558 0.009685
-0.461080 -0.021560 0.116965
-0.422858 -0.009380 0.156040
-0.451895 -0.018767 0.127810
-0.326604 -0.130941 -0.179122
-0.308341 -0.120009 -0.201296
0.301146 -0.143907 0.290940
0.230623 -0.129336 0.298703
-0.358318 0.049696 0.193088
-0.315573 0.062741 0.214528
-0.051235 -0.012571 0.299841
0.032179 -0.010292 0.311780
0.110310 0.218601 -0.209978
0.228540 0.217490 -0.217934
0.139996 0.207395 -0.224853
0.166499 0.194983 -0.237736
0.144046 0.006659 0.305366
-0.234705 -0.048029 -0.265510
-0.306457 -0.025818 -0.244245
0.145244 0.021983 0.304582
0.218266 0.012622 0.305941
-0.334715 0.045360 0.208720
-0.201618 0.029917 0.236184
-0.261725 0.025527 0.212094
-0.192290 0.040539 0.234691
-0.268800 0.017000 0.212513
-0.318756 -0.012500 0.218676
-0.343501 0.000087 -0.223797
-0.280437 -0.014338 -0.248909
-0.266595 -0.022658 -0.255018
0.690932 -0.258558 -0.067804
0.706104 -0.233292 -0.097211
-0.265001 0.058848 -0.212399
-0.336483 0.037326 -0.185722
-0.358248 0.039567 -0.176348
-0.289559 0.062825 -0.203312
-0.491060 0.027753 -0.095068
-0.499732 0.024100 -0.080033
0.004530 -0.327571 -0.086476
-0.515540 -0.002584 -0.059596
-0.518557 -0.007499 -0.044166
-0.472021 -0.034750 0.079086
-0.205691 -0.094266 -0.265336
0.057860 -0.305838 -0.164567
-0.190226 -0.116675 -0.261519
-0.127381 -0.119863 -0.277131
-0.008721 -0.266014 -0.199862
-0.503598 0.036458 -0.093105
-0.513711 0.044426 -0.085882
-0.519293 0.040770 -0.060939
0.369411 0.194027 0.266585
0.290850 0.179397 0.282741
0.317848 0.209229 0.262917
0.843705 -0.115172 0.056583
-0.482441 -0.001051 0.119347
-0.513002 -0.001603 0.084546
-0.485846 -0.005134 0.113192
-0.452113 -0.007220 0.140999
-0.144747 0.067477 -0.248547
-0.081381 0.091998 -0.258190
-0.063055 0.083834 -0.263859
0.002702 0.108693 -0.268891
-0.094011 -0.237659 -0.202129
-0.158277 -0.127115 0.254987
-0.238745 -0.099113 0.242317
-0.239372 -0.084396 0.245512
0.683365 0.170782 0.161978
0.667859 0.145565 0.188742
0.627964 0.174264 0.190492
0.716474 0.137731 0.161888
0.181326 0.023656 0.322140
0.191946 0.042179 0.322270
0.283522 0.059568 0.317618
0.174079 -0.312530 0.168564
0.259133 -0.317552 0.159069
0.275893 -0.295718 0.187074
0.192132 -0.291741 0.194405
-0.053935 0.015177 0.303360
0.028948 0.022784 0.314825
0.008186 0.012241 0.312078
0.798005 -0.168711 0.033506
0.764742 -0.195114 0.056497
0.019196 0.150921 -0.279435
-0.020650 0.176112 -0.260425
-0.037624 0.148843 -0.270602
-0.499223 -0.033925 -0.021939
-0.503495 -0.036506 0.011004
-0.502415 -0.037440 0.000407
-0.495167 -0.034600 -0.032888
-0.484073 0.010901 -0.038379
-0.471683 0.006799 -0.046017
-0.515645 -0.017323 0.016344
-0.510370 -0.014404 0.051722
-0.474711 -0.001032 -0.087594
-0.498070 0.002614 -0.051644
-0.476837 0.004088 -0.084938
-0.510840 -0.015530 -0.020614
-0.166468 -0.029191 -0.279945
-0.170975 -0.021966 -0.277961
0.092529 0.017046 0.319667
-0.103179 -0.034209 -0.294173
-0.112894 -0.024799 -0.291350
-0.160527 0.016671 -0.278109
-0.188993 0.009042 -0.269899
-0.213749 0.013644 -0.262811
-0.235623 0.007330 -0.255222
-0.372152 -0.006031 0.196460
-0.416436 -0.010656 0.166340
-0.452959 -0.016809 0.134347
-0.409539 -0.010434 0.170829
-0.364760 -0.004242 0.200245
-0.476099 -0.026468 0.097793
-0.496908 -0.033063 0.055729
-0.482107 -0.027474 0.088700
-0.137756 0.029629 0.258439
-0.210053 0.014881 0.240092
-0.144511 0.021002 0.259687
-0.220585 0.008685 0.239613
-0.205665 0.021778 0.238222
-0.488963 -0.093343 -0.020971
-0.453177 -0.123305 -0.041479
-0.514133 -0.031930 -0.040839
-0.339817 0.212714 -0.010745
-0.301552 0.234539 0.017604
-0.225662 0.262524 -0.046931
-0.239058 0.262465 0.000514
-0.406522 0.140594 -0.056738
0.456734 0.274096 -0.096881
0.532980 0.263529 -0.078092
-0.387230 -0.010969 0.175624
-0.342462 -0.008349 0.197795
-0.402047 -0.012602 0.163162
-0.436740 -0.013756 0.142049
-0.324760 0.099236 -0.180015
-0.158722 -0.110665 0.259656
-0.075690 -0.132379 0.270148
-0.391914 0.069144 -0.159900
-0.499998 -0.037372 -0.027594
-0.481958 -0.035398 -0.068229
-0.499365 -0.036725 -0.035661
-0.479151 -0.033914 -0.074722
0.396877 0.220088 0.244846
0.449275 0.202300 0.246766
0.429138 0.178792 0.265177
-0.472158 -0.047455 0.044535
-0.445193 -0.032547 0.082912
-0.494313 -0.044552 -0.068233
0.643854 0.247164 0.027047
0.683273 0.227294 -0.001863
0.666976 0.234195 0.064572
0.699882 0.219703 0.032899
-0.421875 -0.022192 -0.131418
-0.455157 -0.030479 -0.101090
-0.415092 -0.022327 -0.137167
-0.450681 -0.029515 -0.107333
-0.510367 -0.005077 -0.018660
-0.514577 -0.008091 0.016951
-0.511174 -0.010441 -0.018754
0.469556 0.296899 0.040935
-0.458813 -0.017863 0.118881
-0.330636 -0.005069 0.217131
-0.265344 -0.004532 0.244431
-0.409497 -0.014847 0.152736
-0.075472 -0.116150 0.275095
-0.383556 -0.004013 0.187616
-0.326239 -0.005407 0.217108
-0.379956 -0.002770 0.189268
-0.008390 -0.095461 0.291932
0.073591 -0.104659 0.300091
0.080863 -0.123060 0.295134
0.649446 -0.003013 -0.245354
0.653408 0.031681 -0.243209
-0.456862 0.009167 0.131391
-0.453279 0.012514 0.135932
-0.420831 0.003616 0.161279
0.022469 0.284977 -0.077578
0.115571 0.298427 -0.069947
0.084454 0.301992 -0.040623
-0.431138 -0.002721 -0.127023
-0.539700 0.057979 0.028502
-0.526830 0.055547 0.070255
-0.536122 0.051614 0.019697
-0.526230 0.050968 0.061596
0.176428 0.310803 -0.032241
0.137791 0.311606 -0.001910
0.120670 -0.159820 -0.267023
-0.300659 0.014106 -0.229685
0.380527 -0.065420 -0.307172
0.338495 -0.042593 -0.314338
0.399856 0.157174 -0.250432
0.415216 0.138689 -0.257697
0.475705 0.154016 -0.236386
0.426641 -0.045273 -0.302612
0.382338 -0.022790 -0.311048
0.386582 -0.045375 0.294782
0.418913 -0.022947 0.289919
0.490760 -0.015562 0.276187
0.468130 -0.042541 0.280187
0.652534 0.030611 -0.220624
0.705777 0.038123 -0.193734
0.647678 0.052789 -0.218787
0.642497 0.074500 -0.215657
-0.069997 -0.239532 0.213918
-0.175748 -0.218170 0.196914
-0.156487 -0.205013 0.218753
-0.089580 -0.254541 0.190693
0.878553 0.047561 -0.056312
0.858975 0.040849 -0.097658
0.875172 0.013346 -0.070634
0.290879 0.279558 -0.127784
0.231525 0.262866 -0.159661
0.260285 0.250964 -0.177305
-0.191365 0.079241 0.262548
-0.168877 0.095966 0.263969
-0.290867 0.057369 0.228437
-0.242493 0.069246 0.246175
-0.220584 0.086120 0.249795
-0.087743 0.165513 -0.250465
-0.008149 0.203560 -0.244782
-0.474239 -0.032419 0.077648
0.436758 0.129704 -0.280437
0.388305 0.104575 -0.295377
0.319650 0.100821 -0.303276
0.358590 0.126353 -0.292520
0.656081 0.121776 0.218735
0.697011 0.144336 0.186743
0.717338 0.112780 0.189902
0.694257 0.090868 0.211094
-0.067091 0.192959 0.187705
0.016446 0.214033 0.191178
0.026027 0.239664 0.166162
-0.058408 0.218461 0.164293
0.264047 -0.203237 0.266296
0.329302 -0.195662 0.266526
0.253952 -0.176878 0.280487
0.762685 0.150800 0.105005
0.489959 0.134541 -0.242952
0.545959 0.147606 -0.219410
0.728944 0.184163 0.101617
0.727745 0.162835 0.133176
-0.515245 -0.012741 0.014985
-0.494478 -0.011608 0.087535
0.542949 0.277739 -0.017136
0.580861 0.260908 -0.041508
-0.459321 -0.041028 -0.043943
-0.466246 -0.047881 0.000191
-0.444816 -0.026271 -0.083201
-0.454606 -0.034019 -0.079205
-0.469781 -0.047006 -0.039314
-0.237102 -0.134004 0.228761
0.650647 0.235054 -0.037500
0.704289 0.209021 -0.032803
-0.350505 -0.010161 -0.180886
-0.399160 -0.014183 -0.152631
-0.399161 -0.011806 -0.152525
0.623051 0.253765 -0.007841
-0.493164 -0.022051 0.075930
-0.502543 -0.019735 0.072246
-0.525164 0.058010 0.083551
-0.520540 0.059192 0.095777
-0.499846 0.046003 0.112382
-0.493321 0.046087 0.123230
0.645590 -0.229876 0.142765
0.694514 -0.200666 0.136604
0.640738 -0.202069 0.171767
0.684856 -0.173107 0.164850
0.053419 -0.185311 -0.278467
-0.027768 -0.167702 -0.276311
0.079915 -0.214741 -0.263847
-0.002153 -0.196978 -0.264175
0.377833 -0.055920 0.306184
-0.441166 -0.017510 -0.120105
0.089358 -0.043713 0.306208
0.021138 -0.045457 0.300582
0.531226 0.166763 -0.211706
0.752337 -0.202506 -0.064280
-0.510931 0.006064 -0.015366
-0.241100 -0.164803 0.217471
-0.312389 -0.105918 0.221277
-0.239796 0.090185 -0.214845
-0.211855 0.086132 -0.224874
-0.232994 -0.147170 0.231981
-0.295939 -0.097555 0.232595
-0.365732 -0.059138 0.214745
-0.450393 0.002813 -0.117268
-0.481958 0.009002 -0.082921
-0.446518 -0.000197 -0.119162
-0.464534 0.054208 -0.059265
-0.473011 0.079430 -0.012912
-0.490869 0.034636 0.048796
-0.344621 0.101389 0.112465
0.602753 0.020080 -0.261816
0.577953 0.046765 -0.267630
0.717861 -0.140286 0.160376
0.616553 0.231844 -0.164114
0.515772 -0.328944 0.057269
0.001697 -0.283385 0.183161
0.087397 -0.302035 0.175762
-0.459897 0.005596 0.128042
-0.489371 0.005736 0.093051
-0.504704 0.037596 0.084257
-0.475924 0.030690 0.122798
-0.479187 0.028257 0.114675
-0.463369 -0.037034 -0.106071
-0.456386 -0.032991 -0.110720
0.453920 -0.330853 0.091823
0.498106 -0.310872 0.109005
-0.282673 0.024568 0.238162
-0.215602 0.039736 0.262988
0.553724 -0.307775 0.081348
0.562076 -0.290766 0.110749
0.617870 -0.281897 0.085908
-0.246802 0.027312 0.253637
-0.302551 0.016957 0.230195
-0.163056 0.004027 -0.248869
-0.163629 0.009610 -0.248491
0.427874 -0.309825 0.140504
0.458440 0.172123 -0.228488
-0.298482 -0.009682 0.222372
-0.365854 -0.008982 0.192451
0.414392 -0.356012 -0.064891
0.835504 0.069910 -0.121062
0.830563 0.112385 -0.103775
-0.549016 0.054072 0.074853
0.508961 -0.289252 0.140945
-0.573833 0.065406 0.034322
-0.557578 0.060056 0.073469
-0.565475 0.059340 0.037451
0.016538 0.248042 -0.156405
0.110536 0.263934 -0.149608
0.047796 0.239136 -0.176140
0.471846 -0.000926 0.294435
-0.274941 -0.046190 -0.229102
-0.212541 -0.071806 -0.243498
0.402993 0.013704 0.305968
0.309670 -0.012101 0.315891
0.399047 -0.013284 0.306402
-0.523685 -0.018635 0.025008
-0.473803 -0.021609 -0.088434
-0.497337 -0.025779 -0.053201
-0.497219 -0.021707 -0.054355
-0.508019 -0.015787 0.071510
-0.512638 -0.011727 0.072779
-0.527115 -0.013830 0.032031
0.155505 0.179535 0.239151
0.254993 0.207595 0.225258
0.172646 0.207650 0.220167
-0.394982 0.110227 -0.116357
-0.349855 0.148340 -0.128821
-0.409544 0.128251 -0.082106
-0.428610 0.070199 -0.099693
-0.506317 0.051917 -0.108996
-0.534285 0.074593 -0.060034
-0.511161 0.055637 -0.097514
-0.352094 -0.011534 -0.195634
-0.301746 -0.025594 -0.217696
-0.339003 -0.012727 -0.198314
-0.287376 -0.025303 -0.220724
-0.452080 0.032695 -0.076815
-0.106214 0.233620 -0.138792
-0.042601 0.261984 -0.110551
-0.070893 0.265962 -0.083981
-0.441394 0.088708 -0.073257
-0.350148 0.000873 -0.204233
-0.397600 0.003556 -0.177278
-0.309952 -0.012807 -0.205388
-0.303881 -0.011965 -0.206475
-0.361115 -0.007371 -0.179625
-0.299826 -0.011289 -0.206805
-0.239366 -0.015563 -0.229865
-0.389623 -0.013363 0.153144
-0.391367 -0.014732 0.153894
-0.439055 -0.023897 0.116177
0.738111 0.185504 0.122537
0.780430 0.176255 0.085617
0.692566 0.216340 0.123301
0.420202 -0.188516 0.257174
0.484885 -0.205819 0.233115
0.397451 -0.163307 0.274439
0.483627 -0.173372 0.254509
-0.184499 0.008972 0.273740
-0.184191 0.014050 0.274157
-0.258516 0.002729 0.248777
-0.356604 -0.008236 -0.180645
-0.186234 0.119980 -0.220667
-0.267654 0.094353 -0.204473
-0.157230 0.113837 -0.231504
-0.479637 -0.026919 0.131567
0.046444 0.075298 -0.282398
0.128287 0.082326 -0.287944
0.664446 -0.148217 0.190762
0.637284 -0.120780 0.214530
0.603482 -0.295600 -0.049632
-0.156092 -0.170187 -0.241404
0.536254 -0.313765 -0.064275
0.559825 -0.315671 -0.024152
-0.512748 0.039712 0.113963
-0.467309 0.024093 0.153426
-0.520651 0.044231 0.113870
0.823520 -0.125115 0.045623
0.802237 -0.125797 0.087244
0.842927 -0.086426 0.036428
0.825789 -0.090182 0.074044
-0.320634 0.096536 0.199941
-0.273960 0.108772 0.218076
-0.234697 -0.157741 -0.215009
-0.233686 -0.136902 -0.232157
-0.078554 0.296077 0.093206
0.007707 0.319291 0.070491
-0.017357 0.299289 0.119852
0.633298 0.269238 0.070990
0.645112 0.272904 0.031185
0.697309 0.247297 0.041687
0.071783 0.321138 0.097952
0.328762 0.081861 0.310512
0.376541 0.063910 0.307034
-0.156252 -0.192610 -0.222474
0.180523 -0.320469 0.148978
0.155356 -0.335254 0.113994
0.071997 -0.320009 0.128161
0.098122 -0.305912 0.161837
0.093406 0.064552 0.291586
0.167003 0.060814 0.298319
0.184287 0.080853 0.292998
0.847456 0.019741 0.056012
-0.575256 0.080372 -0.033343
0.858264 -0.014695 0.023232
0.849201 0.049864 0.028716
-0.229842 0.039992 -0.254828
-0.291406 0.023634 -0.231608
0.318580 -0.336178 0.123030
0.392985 -0.329918 0.116670
0.362064 -0.359958 0.050935
0.382015 -0.346770 0.083273
0.300074 -0.351645 0.091700
-0.561742 0.071887 -0.007201
-0.560967 0.071915 -0.035892
-0.572168 0.073923 0.062841
-0.585819 0.082215 0.021793
-0.422592 -0.011165 0.162357
-0.382336 -0.007152 0.190867
-0.490121 -0.028389 -0.055200
-0.503017 -0.035274 0.021697
0.323862 -0.313291 -0.176873
0.402210 -0.308519 -0.169834
0.334498 -0.288261 -0.204885
-0.503290 -0.034028 -0.010591
-0.525738 0.049792 -0.098874
-0.488406 0.022013 -0.135845
-0.572147 0.072977 0.064513
-0.215383 0.023593 0.265323
0.005347 -0.130938 0.284218
-0.081565 -0.099321 0.278776
-0.002343 -0.112112 0.288492
0.089789 -0.006019 0.304450
0.086753 -0.064431 0.309672
0.119519 -0.087509 0.307579
0.594167 -0.194961 -0.185387
0.634422 -0.211600 -0.155051
0.607951 -0.172001 -0.194117
0.659864 -0.187177 -0.160325
0.679460 -0.139369 -0.178257