# vtk DataFile Version 2.0
Simplicial Mesh Example
ASCII
DATASET UNSTRUCTURED_GRID
POINTS 17704 double
-3.440837e+04 -2.748208e+04 -2.471511e+05
-3.521322e+04 -2.403973e+04 -2.474400e+05
-3.313390e+04 -2.454970e+04 -2.476474e+05
-3.085291e+04 -2.518793e+04 -2.478385e+05
2.197920e+04 -6.538183e+04 -2.414666e+05
2.402448e+04 -6.497850e+04 -2.413762e+05
2.268228e+04 -6.373910e+04 -2.418335e+05
2.760674e+04 -6.812521e+04 -2.401515e+05
2.577985e+04 -6.891544e+04 -2.401346e+05
2.824104e+04 -6.617571e+04 -2.406249e+05
2.630995e+04 -6.437554e+04 -2.413108e+05
2.605087e+04 -6.626487e+04 -2.408373e+05
2.079370e+04 -5.943688e+04 -2.430632e+05
1.791832e+04 -6.180014e+04 -2.427053e+05
4.686173e+03 -4.930816e+04 -2.460551e+05
7.520775e+03 -4.691621e+04 -2.464486e+05
9.419621e+03 -4.910979e+04 -2.459923e+05
6.741428e+03 -5.168183e+04 -2.455656e+05
-4.682181e+04 -2.342061e+04 -2.456045e+05
-2.271158e+04 -3.139512e+04 -2.479799e+05
-2.782309e+04 -2.922728e+04 -2.477816e+05
-2.548725e+04 -3.000524e+04 -2.479488e+05
-2.540916e+04 -2.671139e+04 -2.482963e+05
-2.224758e+04 -2.771938e+04 -2.485166e+05
-3.660380e+04 -2.690038e+04 -2.469418e+05
-3.726219e+04 -2.371601e+04 -2.471522e+05
-3.935842e+04 -2.338487e+04 -2.468580e+05
-5.412544e+04 -2.346834e+04 -2.441410e+05
-5.218679e+04 -2.393575e+04 -2.445022e+05
-1.911234e+04 -2.927293e+04 -2.485248e+05
-5.067012e+04 -2.114979e+04 -2.450793e+05
-5.324166e+04 -2.047989e+04 -2.445885e+05
-3.221311e+04 -2.806379e+04 -2.473609e+05
-4.649710e+04 -2.521809e+04 -2.455092e+05
-4.558822e+04 -2.389343e+04 -2.457953e+05
-4.150318e+04 -2.304611e+04 -2.465575e+05
1.138777e+04 -5.124333e+04 -2.455159e+05
8.904261e+03 -5.391188e+04 -2.450425e+05
2.381251e+04 -6.707574e+04 -2.408419e+05
1.121363e+04 -5.594612e+04 -2.444733e+05
1.364088e+04 -5.321206e+04 -2.449565e+05
3.056905e+04 -6.837497e+04 -2.397484e+05
-5.029005e+04 -2.436320e+04 -2.448376e+05
-4.839349e+04 -2.479064e+04 -2.451733e+05
-4.825017e+04 -2.169042e+04 -2.454866e+05
-4.453887e+04 -2.553236e+04 -2.458027e+05
-4.369761e+04 -2.269955e+04 -2.462504e+05
-5.612749e+04 -2.294044e+04 -2.437407e+05
-5.600519e+04 -1.975524e+04 -2.440587e+05
-5.812975e+04 -2.241252e+04 -2.433406e+05
-3.001802e+04 -2.864552e+04 -2.475710e+05
5.615557e+03 -4.471541e+04 -2.469073e+05
2.631036e+03 -4.693480e+04 -2.465456e+05
1.848897e+04 -5.744452e+04 -2.437360e+05
1.577982e+04 -5.995637e+04 -2.433224e+05
1.352320e+04 -5.798075e+04 -2.439052e+05
1.602172e+04 -5.529259e+04 -2.443665e+05
2.454697e+04 -6.274494e+04 -2.419153e+05
5.759935e+02 -4.456172e+04 -2.470370e+05
3.703946e+03 -4.250734e+04 -2.473683e+05
2.005706e+04 -6.364432e+04 -2.420891e+05
2.277684e+04 -6.115139e+04 -2.424852e+05
-2.829011e+04 -2.590510e+04 -2.480537e+05
-4.062183e+04 -2.615891e+04 -2.463899e+05
-3.866356e+04 -2.647221e+04 -2.466840e+05
-4.258027e+04 -2.584563e+04 -2.460962e+05
-6.031958e+04 -2.180782e+04 -2.428683e+05
-5.874170e+04 -2.074322e+04 -2.433381e+05
-6.012531e+04 -1.861026e+04 -2.431872e+05
-6.255946e+04 -2.118270e+04 -2.423771e+05
2.787925e+04 -7.089884e+04 -2.393464e+05
-2.033983e+03 -4.250129e+04 -2.473751e+05
1.450144e+03 -4.062884e+04 -2.476965e+05
-1.438558e+04 -3.556511e+04 -2.480778e+05
-1.716078e+04 -3.417504e+04 -2.480443e+05
-1.283766e+04 -3.238260e+04 -2.485443e+05
-1.597576e+04 -3.082731e+04 -2.485340e+05
-4.592839e+04 -2.220917e+04 -2.458777e+05
-6.756249e+03 -3.570640e+04 -2.483255e+05
-9.699833e+03 -3.394109e+04 -2.485532e+05
-5.156050e+03 -4.072937e+04 -2.475722e+05
-1.185122e+03 -3.904798e+04 -2.478975e+05
-1.993610e+04 -3.278505e+04 -2.480117e+05
-3.919324e+03 -3.740792e+04 -2.481071e+05
-1.140027e+04 -3.718614e+04 -2.479699e+05
-8.278130e+03 -3.895766e+04 -2.477704e+05
-9.754375e+03 1.027327e+03 -2.507587e+05
-7.862474e+03 4.155167e+03 -2.508291e+05
-9.446677e+03 2.979477e+03 -2.507877e+05
-2.239759e+04 1.539850e+04 -2.494954e+05
-1.761099e+04 1.104412e+04 -2.500825e+05
-2.071264e+04 8.745257e+03 -2.499517e+05
-3.757062e+04 3.227105e+04 -2.461169e+05
-4.016494e+04 3.466997e+04 -2.453935e+05
-4.095644e+04 3.036765e+04 -2.458436e+05
-4.304177e+04 3.223698e+04 -2.452491e+05
-4.287899e+04 3.705175e+04 -2.446083e+05
7.436876e+02 -4.888143e+03 -2.509579e+05
2.346061e+03 -1.596608e+03 -2.509776e+05
-3.455495e+03 -2.521953e+03 -2.508768e+05
-3.561404e+02 3.065681e+01 -2.509791e+05
-3.509874e+04 2.748659e+04 -2.470559e+05
-3.736097e+04 2.680493e+04 -2.468027e+05
-2.551609e+04 1.331309e+04 -2.493158e+05
-2.463299e+04 1.558333e+04 -2.492610e+05
-2.404050e+04 1.163078e+04 -2.495714e+05
-2.021541e+04 1.298295e+04 -2.498608e+05
-2.248274e+04 1.005301e+04 -2.497985e+05
-2.864982e+03 1.541479e+03 -2.509813e+05
-7.123895e+03 1.550976e+03 -2.508515e+05
-5.555096e+03 -1.338866e+03 -2.508370e+05
-7.654718e+03 -1.557750e+02 -2.507976e+05
-5.358692e+03 2.852869e+03 -2.509079e+05
5.491178e+04 -5.544922e+04 -2.388062e+05
-1.717265e+04 6.129881e+03 -2.502593e+05
-1.484142e+04 7.158509e+03 -2.503785e+05
-1.508445e+04 9.163260e+03 -2.502983e+05
5.724576e+03 -9.504156e+03 -2.506604e+05
4.945239e+03 -3.718480e+03 -2.508736e+05
3.230417e+03 -7.185491e+03 -2.508106e+05
7.564184e+03 -6.131368e+03 -2.507185e+05
-4.544160e+04 3.690796e+04 -2.441691e+05
-4.517961e+04 3.412252e+04 -2.446345e+05
2.675601e+04 -2.703913e+04 -2.480625e+05
2.157750e+04 -2.700231e+04 -2.486181e+05
-3.514125e+04 2.985971e+04 -2.467649e+05
-3.915860e+04 2.858620e+04 -2.463228e+05
-2.699175e+04 1.499546e+04 -2.490605e+05
-2.846749e+04 1.667790e+04 -2.488056e+05
-1.030568e+04 5.605741e+03 -2.507087e+05
-1.185408e+04 2.210446e+03 -2.507203e+05
-2.994332e+04 1.836041e+04 -2.485511e+05
-3.139979e+04 2.003976e+04 -2.482469e+05
-2.892149e+04 2.052265e+04 -2.485103e+05
-3.428298e+04 2.339375e+04 -2.475620e+05
-3.572473e+04 2.507090e+04 -2.472201e+05
2.733700e+04 -3.310218e+04 -2.472865e+05
-1.894261e+04 7.437549e+03 -2.501053e+05
-2.663585e+04 2.023419e+04 -2.487551e+05
-3.078251e+04 2.503225e+04 -2.478465e+05
-3.284133e+04 2.171671e+04 -2.479042e+05
-1.355905e+03 -3.705043e+03 -2.509171e+05
-1.363289e+04 3.514637e+03 -2.505684e+05
-1.540275e+04 4.822245e+03 -2.504137e+05
-1.265046e+04 7.351296e+03 -2.505070e+05
-2.871083e+04 2.262002e+04 -2.483423e+05
5.121158e+04 -5.349556e+04 -2.400319e+05
4.777205e+04 -5.105069e+04 -2.412274e+05
4.842508e+04 -5.605338e+04 -2.400217e+05
-2.452826e+04 1.782952e+04 -2.491228e+05
1.323115e+04 -1.135245e+04 -2.503860e+05
1.032365e+04 -8.673720e+03 -2.505561e+05
5.588756e+04 -5.973946e+04 -2.375666e+05
5.853546e+04 -5.709986e+04 -2.375836e+05
2.445705e+04 -3.005202e+04 -2.479515e+05
3.948611e+04 -4.195234e+04 -2.444149e+05
3.700093e+04 -3.880903e+04 -2.452454e+05
3.493174e+04 -4.217193e+04 -2.450025e+05
5.214823e+04 -5.803076e+04 -2.388064e+05
-3.288181e+04 2.747661e+04 -2.473451e+05
2.949933e+04 -2.994693e+04 -2.474339e+05
1.591838e+04 -1.441998e+04 -2.500291e+05
1.071311e+04 -1.414172e+04 -2.503623e+05
1.336700e+04 -1.716040e+04 -2.500069e+05
3.018155e+04 -3.614999e+04 -2.466130e+05
3.457770e+04 -3.574401e+04 -2.460570e+05
3.216441e+04 -3.277179e+04 -2.468248e+05
1.854934e+04 -1.762048e+04 -2.496140e+05
1.608688e+04 -2.046798e+04 -2.495669e+05
8.218798e+03 -1.182289e+04 -2.505110e+05
2.393225e+04 -2.404605e+04 -2.487111e+05
-4.564767e+04 3.939678e+04 -2.437588e+05
3.730460e+04 -4.517692e+04 -2.441774e+05
4.201203e+04 -4.512989e+04 -2.434078e+05
3.255641e+04 -3.916067e+04 -2.458070e+05
1.880697e+04 -2.377584e+04 -2.491283e+05
2.120774e+04 -2.085435e+04 -2.491958e+05
4.458506e+04 -4.836577e+04 -2.423757e+05
-4.827419e+04 3.674257e+04 -2.436795e+05
4.510247e+04 -5.367133e+04 -2.411686e+05
3.966055e+04 -4.814210e+04 -2.432237e+05
4.201711e+04 -5.110804e+04 -2.422716e+05
8.578065e+03 2.794791e+04 -2.492320e+05
1.194971e+04 2.979735e+04 -2.488933e+05
6.049801e+03 2.976302e+04 -2.491407e+05
9.574200e+03 3.185020e+04 -2.487425e+05
1.108684e+04 2.614688e+04 -2.493233e+05
-1.191441e+04 4.621093e+04 -2.464326e+05
-9.393866e+03 4.449667e+04 -2.468420e+05
1.412622e+04 2.791656e+04 -2.490320e+05
-6.441540e+03 4.687252e+04 -2.465014e+05
-7.253202e+03 4.301718e+04 -2.471842e+05
-3.775320e+03 4.493416e+04 -2.469186e+05
5.582406e+04 1.969206e+03 -2.448176e+05
5.888899e+04 -2.860433e+01 -2.441283e+05
5.568899e+04 -2.298203e+03 -2.448328e+05
6.980893e+03 3.409137e+04 -2.485786e+05
3.820748e+03 3.199740e+04 -2.488974e+05
7.304394e+04 -2.624202e+03 -2.403507e+05
2.195177e+04 2.395998e+04 -2.488273e+05
1.900204e+04 2.128842e+04 -2.493127e+05
1.639306e+04 2.641799e+04 -2.490610e+05
1.613268e+04 2.267666e+04 -2.494530e+05
1.903245e+04 2.525084e+04 -2.489497e+05
7.065852e+04 -5.269074e+03 -2.410073e+05
7.423707e+04 -3.766747e+03 -2.399794e+05
7.665695e+04 -1.111752e+03 -2.392561e+05
-8.841698e+03 4.851969e+04 -2.461244e+05
-1.240840e+04 5.078661e+04 -2.455168e+05
6.920846e+04 -3.717359e+03 -2.414505e+05
6.666731e+04 -6.182133e+03 -2.420895e+05
1.357660e+04 2.435959e+04 -2.494146e+05
2.206830e+04 1.980501e+04 -2.491635e+05
5.266669e+04 4.104639e+03 -2.454591e+05
5.248081e+04 -5.838994e+01 -2.455472e+05
-5.288519e+03 4.140437e+04 -2.474926e+05
-9.397398e+02 4.255809e+04 -2.473553e+05
-3.082163e+03 3.949228e+04 -2.478371e+05
1.921917e+03 3.980306e+04 -2.478034e+05
3.196162e+04 1.843460e+04 -2.482421e+05
2.884916e+04 1.652488e+04 -2.488362e+05
3.210151e+04 1.410532e+04 -2.485092e+05
-6.093184e+02 3.719325e+04 -2.482217e+05
2.863854e+04 2.080848e+04 -2.485192e+05
2.534578e+04 1.821953e+04 -2.490049e+05
2.518353e+04 2.253109e+04 -2.486926e+05
3.885328e+04 1.351192e+04 -2.476703e+05
3.541705e+04 1.163247e+04 -2.481754e+05
3.879929e+04 9.110013e+03 -2.478359e+05
3.536614e+04 1.600270e+04 -2.479592e+05
4.918502e+04 2.169545e+03 -2.461964e+05
4.934503e+04 6.351385e+03 -2.461347e+05
4.239529e+04 1.108457e+04 -2.471706e+05
4.227459e+04 6.677392e+03 -2.473687e+05
6.531549e+04 -3.220600e+03 -2.425056e+05
6.194569e+04 -1.948798e+03 -2.433768e+05
6.269927e+04 -5.701911e+03 -2.431277e+05
5.894952e+04 -4.382130e+03 -2.440888e+05
4.509973e+03 3.682724e+04 -2.482179e+05
1.664768e+03 3.452601e+04 -2.485682e+05
[...]
POINT_DATA 17704
VECTORS displacement double
0.104505 -0.148250 0.069054
0.098260 -0.137755 0.087817
0.095028 -0.137441 0.074702
0.091390 -0.136555 0.059628
-0.074263 0.135438 -0.132409
-0.082425 0.146560 -0.124744
-0.074734 0.139447 -0.125905
-0.103459 0.164692 -0.120695
-0.096747 0.155284 -0.129150
-0.102683 0.167985 -0.113052
-0.091171 0.158446 -0.115123
-0.093311 0.156980 -0.121186
-0.060726 0.129552 -0.120637
-0.052059 0.112910 -0.135422
0.008771 0.030568 -0.131056
-0.000149 0.049672 -0.121923
-0.007784 0.061985 -0.124039
0.000407 0.044241 -0.134249
0.119667 -0.141590 0.147622
0.082855 -0.129297 -0.011220
0.092203 -0.140512 0.025544
0.087708 -0.135872 0.009560
0.081852 -0.129985 0.022876
0.075897 -0.123053 0.001288
0.108147 -0.148988 0.083117
0.101755 -0.138358 0.099695
0.105173 -0.138457 0.111698
0.132775 -0.142803 0.180374
0.131028 -0.144893 0.170270
0.070463 -0.114055 -0.021837
0.119234 -0.131258 0.173051
0.121114 -0.127885 0.186425
0.100631 -0.146631 0.054686
0.124481 -0.149298 0.139367
0.118765 -0.143319 0.140082
0.108503 -0.138146 0.123695
-0.016159 0.074258 -0.125252
-0.008843 0.058128 -0.136321
-0.084903 0.145143 -0.130917
-0.019119 0.072772 -0.137149
-0.026087 0.088217 -0.125068
-0.117066 0.179105 -0.110368
0.129054 -0.146621 0.160247
0.126871 -0.148091 0.149913
0.116890 -0.133797 0.160422
0.121503 -0.149901 0.128827
0.111711 -0.137415 0.135568
0.134208 -0.140211 0.190810
0.122672 -0.123906 0.200144
0.135375 -0.137433 0.200866
0.096527 -0.144072 0.040091
0.006963 0.036969 -0.119062
0.016427 0.016596 -0.126717
-0.049033 0.116673 -0.122520
-0.041076 0.100497 -0.136436
-0.029968 0.087029 -0.137091
-0.037063 0.102511 -0.124138
-0.081010 0.149457 -0.116883
0.023486 0.002504 -0.121398
0.013613 0.023995 -0.115481
-0.063473 0.124946 -0.133839
-0.071228 0.140203 -0.118669
0.087064 -0.134329 0.042355
0.115094 -0.150040 0.106849
0.111650 -0.149542 0.095548
0.118385 -0.150152 0.117982
0.136354 -0.134128 0.211721
0.130111 -0.128776 0.208501
0.123900 -0.117073 0.220073
0.137106 -0.130528 0.222515
-0.109813 0.165727 -0.127087
0.031751 -0.015485 -0.115589
0.020692 0.008590 -0.112217
0.065077 -0.094248 -0.066222
0.071543 -0.108290 -0.049656
0.057599 -0.085481 -0.062500
0.064379 -0.101381 -0.043444
0.114386 -0.135866 0.147877
0.043305 -0.048295 -0.091553
0.050440 -0.067126 -0.078424
0.041080 -0.037061 -0.107682
0.028436 -0.009780 -0.108082
0.077480 -0.120082 -0.031150
0.035971 -0.028914 -0.101333
0.057841 -0.077412 -0.082153
0.049776 -0.057973 -0.096472
0.017427 -0.000173 0.044757
0.013213 0.019276 0.030910
0.015206 0.012911 0.041234
-0.001994 0.083839 0.063532
0.006270 0.060501 0.055554
0.010583 0.050959 0.078893
-0.054638 0.162832 0.074593
-0.065501 0.173851 0.078293
-0.053333 0.161315 0.099790
-0.061988 0.170085 0.102912
-0.077180 0.184730 0.082526
0.014358 0.005021 -0.021384
0.012022 0.016275 -0.000725
0.016394 -0.022007 0.004513
0.012894 -0.008907 0.003958
-0.038152 0.144275 0.081265
-0.038578 0.144630 0.095738
0.001717 0.077205 0.087181
-0.002824 0.087013 0.074400
0.005295 0.067849 0.085617
0.002912 0.071446 0.061553
0.008354 0.058805 0.083189
0.013310 0.002456 0.014742
0.015428 0.003137 0.033044
0.016982 -0.017399 0.022469
0.017302 -0.008932 0.035091
0.013399 0.010900 0.022745
-0.173788 0.250763 0.045672
0.014027 0.034455 0.069489
0.011849 0.039279 0.055290
0.008908 0.049496 0.049592
0.010808 0.038183 -0.017816
0.010879 0.027731 0.004015
0.012912 0.023067 -0.020743
0.009141 0.040444 0.007701
-0.080918 0.187861 0.096257
-0.071203 0.178735 0.106203
-0.030473 0.137315 0.019718
-0.021005 0.121407 -0.007651
-0.044722 0.151869 0.071799
-0.045761 0.153071 0.097829
-0.002180 0.086391 0.088553
-0.006358 0.095321 0.089800
0.012532 0.028290 0.038093
0.017278 0.008220 0.052920
-0.010887 0.103918 0.090862
-0.015751 0.112266 0.091841
-0.015509 0.111602 0.077151
-0.026353 0.128620 0.093598
-0.032133 0.136493 0.094262
-0.040870 0.149205 -0.003106
0.012462 0.042823 0.074340
-0.013618 0.107763 0.066355
-0.027721 0.130041 0.068674
-0.020894 0.120515 0.092784
0.015505 -0.013268 -0.014860
0.016443 0.017129 0.058909
0.015319 0.025905 0.064377
0.010975 0.038711 0.043736
-0.020299 0.118881 0.067618
-0.155455 0.240721 0.035193
-0.137002 0.229800 0.027927
-0.154555 0.237963 0.011579
-0.007522 0.096049 0.065059
0.002925 0.067532 0.015639
0.006450 0.053758 0.011654
-0.192112 0.258877 0.033649
-0.191501 0.259683 0.056722
-0.030361 0.135474 -0.005399
-0.087890 0.196302 0.023051
-0.074169 0.185150 0.023368
-0.076481 0.184601 -0.001078
-0.173505 0.248913 0.022134
-0.035895 0.141063 0.069700
-0.040132 0.150254 0.021604
-0.001568 0.081754 0.016597
0.004746 0.064774 -0.010918
0.000052 0.078753 -0.009575
-0.052355 0.162011 -0.000867
-0.061676 0.173653 0.023716
-0.050464 0.162188 0.023661
-0.007097 0.096031 0.016720
-0.005839 0.093399 -0.009209
0.008098 0.052011 -0.014439
-0.021540 0.123750 0.017530
-0.089696 0.195292 0.087186
-0.089855 0.195148 -0.001084
-0.103004 0.207593 0.022888
-0.064010 0.173424 -0.000962
-0.012830 0.107580 -0.008739
-0.013696 0.110103 0.016849
-0.119343 0.218522 0.022752
-0.085111 0.190665 0.111184
-0.136372 0.226849 0.004403
-0.104136 0.205596 -0.001068
-0.119170 0.215505 -0.000835
0.011023 -0.052373 -0.049759
0.016599 -0.071338 -0.043657
0.007416 -0.037420 -0.061746
0.013279 -0.058704 -0.058347
0.014166 -0.065482 -0.035113
-0.035372 0.079713 -0.093236
-0.027887 0.064118 -0.094909
0.019269 -0.080970 -0.028281
-0.022776 0.045299 -0.106627
-0.021895 0.050440 -0.095373
-0.015270 0.027818 -0.105043
0.017752 0.002776 0.225965
0.012311 0.015875 0.236332
0.004579 0.030713 0.224115
0.009113 -0.043421 -0.071615
0.003820 -0.023265 -0.071711
0.003837 0.032130 0.281412
0.028162 -0.102728 0.025768
0.022072 -0.089583 0.020879
0.021915 -0.089130 -0.012451
0.019388 -0.083577 0.000468
0.024994 -0.096879 0.005203
-0.006779 0.048729 0.271854
-0.001115 0.039049 0.284401
0.010091 0.022481 0.293319
-0.029998 0.060728 -0.106592
-0.041298 0.082898 -0.104407
-0.000355 0.039248 0.268582
-0.009556 0.054846 0.257907
0.016928 -0.075895 -0.018185
0.024549 -0.092334 0.043492
0.022739 -0.011512 0.214319
0.010754 0.015950 0.213829
-0.016578 0.037663 -0.094392
-0.007801 0.008792 -0.100854
-0.010948 0.022985 -0.091991
-0.000942 -0.010472 -0.093534
0.034947 -0.096986 0.099449
0.028608 -0.086542 0.091223
0.028589 -0.075554 0.114794
-0.005135 0.006379 -0.087483
0.033933 -0.104284 0.073818
0.026776 -0.091342 0.067318
0.031277 -0.105689 0.048935
0.034383 -0.072628 0.146667
0.027673 -0.061796 0.136696
0.025746 -0.045878 0.156179
0.035157 -0.086256 0.124046
0.015888 0.000962 0.202220
0.026981 -0.026523 0.200668
0.032779 -0.057740 0.166985
0.023120 -0.029662 0.173432
0.001786 0.036262 0.256199
0.006282 0.028264 0.245832
-0.007046 0.052247 0.245169
-0.002043 0.044035 0.233666
0.004594 -0.027701 -0.083442
-0.000213 -0.008959 -0.080354
0.019986 -0.014150 0.188858
0.030337 -0.042200 0.185079
-0.045322 0.098599 -0.089509
0.094003 -0.121193 0.232040
0.106893 -0.139004 0.225787
0.106401 -0.131556 0.239010
0.093348 -0.114063 0.244151
0.105807 -0.123996 0.252563
0.092483 -0.107452 0.254832
0.094469 -0.129423 0.217362
0.034832 -0.058896 -0.182934
0.019403 -0.039297 -0.182825
0.027633 -0.052466 -0.176040
0.044364 -0.074256 -0.173842
0.035573 -0.065854 -0.168326
0.024451 -0.043182 -0.191049
-0.000357 -0.010871 -0.194717
0.013210 -0.027371 -0.197962
0.104831 -0.116370 0.265119
0.090169 -0.095000 0.273976
0.094657 -0.138057 0.200697
0.106945 -0.145982 0.211920
0.107164 -0.153722 0.196241
0.091509 -0.101179 0.264718
0.106004 -0.175818 0.139794
0.093921 -0.166514 0.132526
0.094141 -0.157307 0.157175
0.069458 -0.120057 -0.137934
0.051449 -0.094998 -0.147857
0.059071 -0.110223 -0.134584
0.076868 -0.135146 -0.122068
0.094797 -0.148367 0.179643
0.085619 -0.173281 -0.029877
0.096777 -0.181812 -0.036535
0.082732 -0.164990 -0.055483
0.105102 -0.182123 0.116613
0.092778 -0.173242 0.106557
0.066415 -0.125973 -0.118479
0.098874 -0.187374 -0.010854
0.010532 -0.026044 -0.188810
0.061479 -0.104651 -0.151846
0.100759 -0.190882 0.014931
0.103464 -0.186240 0.092844
0.052988 -0.089126 -0.163693
0.043051 -0.079135 -0.159466
0.093855 -0.173474 -0.060709
0.078871 -0.154199 -0.078832
0.107075 -0.161291 0.179286
0.089610 -0.162778 -0.082892
0.073141 -0.140987 -0.099615
0.091521 -0.177960 0.079699
0.103224 -0.190532 0.067124
0.091081 -0.181544 0.051914
0.102362 -0.192191 0.040817
0.089731 -0.181614 0.024100
0.083673 -0.149806 -0.103479
0.106248 -0.167838 0.161559
0.087585 -0.178388 -0.002885
0.103352 -0.109071 0.276472
0.550325 -0.083885 -0.247559
0.483193 -0.073173 -0.264608
0.475872 -0.079992 -0.264550
0.022431 0.003048 -0.205743
-0.001861 -0.020236 -0.194313
0.093752 -0.000904 0.624417
0.045586 0.000276 0.626172
-0.090122 -0.046685 0.494655
-0.149334 -0.072570 0.492548
0.542388 -0.153664 -0.209310
0.482760 -0.142995 -0.226020
0.442145 -0.125948 -0.240378
0.502453 -0.137512 -0.225227
-0.504047 0.326433 -0.044066
-0.524180 0.331616 -0.031277
0.788148 0.047082 0.489418
0.812826 0.039514 0.478398
0.784866 0.036018 0.493135
-0.692722 0.273985 -0.090129
-0.667967 0.277212 -0.096769
0.551961 -0.096489 0.553032
0.600465 -0.098964 0.541532
0.442810 -0.283915 0.313914
0.505505 0.099140 -0.241659
0.481903 0.087244 -0.250570
0.565516 0.103061 -0.229379
0.440833 -0.306972 0.225702
0.422573 -0.302035 0.222983
0.505256 0.166083 0.513452
0.460632 0.156961 0.526602
0.532349 0.181385 0.492885
0.483951 0.214992 -0.138743
0.536169 0.229053 -0.119398
0.488962 0.205903 -0.152650
1.076953 0.040072 0.199174
1.072912 0.059271 0.186008
1.066835 0.054575 0.216946
-1.010297 0.208643 0.112916
-0.636874 0.256830 0.388447
-0.620349 0.262777 0.381672
-0.663605 0.272769 0.358956
0.524711 0.173312 -0.191010
-0.399175 0.199828 -0.214831
-1.089022 0.002099 0.272903
-1.115455 0.009075 0.212430
0.608227 -0.118557 -0.208911
0.597855 -0.128896 -0.207382
0.638703 -0.145187 -0.189268
0.674503 -0.160843 -0.170395
0.694887 -0.150730 -0.168877
0.716120 -0.139976 -0.165143
0.392128 -0.225140 -0.196094
0.423561 -0.227709 -0.192645
0.459926 -0.249843 -0.170295
1.063494 -0.063982 0.247172
-0.010509 0.080761 0.121140
-0.003805 0.056270 0.134781
-0.003688 0.059674 0.117211
-0.010053 0.073929 0.142274
-0.651893 0.323178 0.255467
0.070293 0.016164 -0.308734
0.031110 0.010953 -0.308142
-0.006510 0.004653 -0.309765
0.147222 0.027414 -0.305605
0.107635 0.023627 -0.306096
-0.159981 0.001731 0.621461
-0.218925 0.003526 0.617008
-0.208897 0.000123 0.618298
-0.497078 0.138737 0.551436
-0.168951 0.004808 0.620474
-0.232435 0.007833 0.615007
-0.755361 -0.246313 -0.019484
-0.753554 -0.253024 -0.008098
0.945666 0.075225 -0.060893
0.954020 0.092070 -0.046155
0.980577 0.073914 -0.031587
0.986560 0.090370 -0.016064
0.969141 0.057659 -0.049183
-1.105611 0.073903 0.200818
-0.109075 0.002542 0.624328
-0.528214 0.333669 0.214545
-0.572006 0.332792 -0.047580
1.067666 0.082298 0.216550
-0.384874 0.208106 -0.209017
-0.029246 0.087345 -0.065522
-0.032711 0.101636 -0.052238
-0.027212 0.094030 -0.049054
-0.604230 -0.224473 0.363853
-0.748876 -0.151058 -0.137504
-0.388985 0.323803 0.201079
-0.397590 0.322865 0.214629
-0.021165 0.054658 -0.087288
-0.026084 0.065840 -0.087213
-1.023223 0.076747 0.335961
-1.038743 0.055234 0.326888
-1.008429 0.059481 0.356420
-0.025896 0.073025 -0.076593
-0.020349 0.059917 -0.077630
-0.415171 0.094175 0.564633
1.019187 -0.180609 0.171357
0.794002 0.259159 0.030620
0.798769 0.248175 0.006072
0.051521 -0.083190 0.189811
0.047474 -0.065522 0.208782
0.058708 -0.088624 0.201955
-0.333764 0.086372 0.599030
-0.274174 0.069902 0.610535
-0.606542 0.360853 0.064768
-0.624902 0.361422 0.081406
-0.602549 0.362661 0.090505
-0.796305 -0.039601 -0.168358
-0.842695 -0.043854 -0.145430
-0.880503 -0.033796 -0.130023
-0.832378 -0.030916 -0.154352
0.003720 0.009874 0.432521
0.010898 0.003178 0.440138
-0.022257 0.035920 0.406770
0.126974 -0.171887 0.037337
0.133476 -0.177045 0.036060
0.130383 -0.174782 0.020453
-0.837391 0.161183 -0.103621
-0.862293 0.147266 -0.096522
-0.906903 -0.217527 0.124086
-0.884111 -0.227815 0.110039
-0.556201 0.354679 0.184777
-0.536146 0.355790 0.169200
-0.554488 0.358603 0.156064
0.300498 -0.029788 0.619159
-0.030471 0.015835 0.634683
-0.022412 0.013721 0.637431
0.032890 0.004691 0.635075
0.025284 0.006629 0.639511
0.041691 0.003669 0.637172
0.087113 -0.093204 0.167810
0.076878 -0.080981 0.161153
0.074248 -0.069598 0.175696
-0.123271 0.092895 0.441248
-0.131573 0.093906 0.450206
-0.158371 0.114642 0.438531
-0.635679 0.217932 -0.159538
-0.597775 0.203925 -0.179070
-0.183223 0.058829 -0.292280
-0.113807 0.036122 -0.298331
0.581966 0.217742 -0.136803
0.589761 0.235035 -0.115083
-0.794135 -0.275833 0.242846
-0.780938 -0.273643 0.262073
0.012207 -0.052517 0.029369
0.011192 -0.051013 0.010274
0.010621 -0.043721 0.021242
-0.794528 -0.255485 0.307359
0.009960 -0.032646 0.028954
0.010860 -0.040787 0.037239
-0.489253 0.354295 0.058941
-0.496303 0.356118 0.076434
-0.481705 0.354137 0.073913
-0.518040 0.359342 0.096252
-0.527940 0.360188 0.108428
-0.509827 0.358131 0.111217
-1.040840 0.162749 0.239323
-1.059960 0.155690 0.198920
-1.060603 0.142515 0.230098
0.917367 -0.241016 0.261218
0.935622 -0.225751 0.265988
-0.503942 0.357600 0.093454
-0.495013 0.356266 0.109448
1.078603 -0.024370 0.078715
1.075679 -0.007855 0.071901
1.085826 -0.011905 0.101717
0.041868 -0.070836 0.178677
-0.597121 0.290649 0.364657
-0.584309 0.298837 0.350199
0.847296 -0.229914 -0.038082
1.025517 -0.137161 0.048919
0.667029 -0.276539 -0.084170
0.709159 -0.278927 -0.062660
0.739242 -0.292953 -0.026694
0.751079 -0.281085 -0.037393
0.699544 -0.292764 -0.048540
0.089685 -0.052294 0.286962
-0.454382 -0.202227 -0.158386
-0.460541 -0.197142 -0.164459
0.415190 -0.065144 0.590735
0.420963 -0.058348 0.593552
0.359069 -0.056544 0.601002
0.378306 -0.053550 0.600770
-0.002184 -0.009715 -0.181668
-0.420690 0.342569 0.117237
-0.409732 0.339040 0.134794
-0.401178 0.338349 0.119130
-0.393974 0.334092 0.144715
-0.706442 0.330640 0.255445
1.001536 0.112872 0.276166
1.004548 0.097205 0.287699
0.561450 -0.146156 -0.209039
0.600195 -0.162959 -0.191013
-0.394282 0.267712 -0.141578
-0.408478 0.271520 -0.138445
-0.411340 0.277986 -0.129035
-0.779645 -0.143176 -0.129777
0.452236 -0.016222 0.578933
0.497301 -0.020892 0.568726
0.969749 0.067788 0.344263
0.980986 0.078105 0.327978
0.258815 -0.002180 0.611631
0.940421 0.071778 0.367102
0.952121 0.079690 0.353282
0.452252 -0.003715 0.580547
-0.294233 -0.175189 0.294566
-0.279452 -0.178475 0.265725
-0.146555 0.092775 0.471658
0.261149 0.007663 0.612061
-0.004247 0.000879 0.626534
0.110851 0.034098 0.554072
-0.035539 0.094566 -0.071441
-0.029694 0.080254 -0.077128
-0.018266 0.070006 0.204967
-0.039516 0.035808 0.195243
-0.026058 0.062523 0.176636
-0.422898 0.302020 0.300071
-0.409555 0.303188 0.288472
-0.432709 0.311090 0.280451
-0.206313 -0.036847 0.609597
-0.209504 -0.042290 0.603590
-0.265255 -0.054317 0.597906
-0.270733 -0.061531 0.591411
-0.541630 -0.291010 0.039161
0.094118 -0.087814 -0.174582
0.111631 -0.109399 -0.163101
0.091801 -0.088119 -0.166130
-0.446179 -0.122811 0.538656
-0.497694 -0.132518 0.528290
-0.506485 -0.143798 0.516241
-0.457701 -0.134246 0.525346
-0.538245 -0.053727 0.571045
-0.588509 -0.052663 0.558654
-0.585926 -0.063897 0.555850
-0.589168 -0.040895 0.561503
-0.636744 -0.049449 0.545962
-0.635638 -0.062248 0.543048
-0.062731 0.016807 0.608789
0.262784 -0.009592 0.609401
0.258940 -0.005653 0.610967
-0.385564 0.293351 0.298518
-0.397277 0.303870 0.278676
-0.423264 0.313273 0.268861
-0.389449 0.305917 0.266042
-0.413428 0.315235 0.256495
0.657577 -0.157765 0.491635
0.222774 -0.228489 0.130396
-0.628899 -0.043731 -0.225095
-0.566703 -0.037048 -0.242140
-0.530549 -0.042489 -0.250342
0.240855 -0.238071 0.138828
0.396590 -0.181253 0.474125
0.452890 -0.214424 0.442648
0.055658 -0.113190 0.145608
0.331096 -0.300242 0.160341
0.350084 -0.305480 0.167435
0.349602 -0.308891 0.149778
0.229614 -0.230329 0.142729
0.201440 -0.112617 0.452206
0.166654 -0.088467 0.462968
-0.883686 0.269709 0.269232
0.520602 -0.099238 0.557859
-0.632237 0.283910 0.373792
-0.664810 0.290552 0.357222
-0.424989 0.342232 0.136768
0.416022 0.205918 0.456070
-0.744493 0.297275 0.318299
-0.764206 0.306575 0.287810
-0.783009 0.297469 0.296829
-0.206637 0.258179 0.156138
-0.220104 0.261462 0.170029
-0.198965 0.246743 0.190278
-0.187414 0.244808 0.174583
0.046324 -0.079797 0.048290
0.043503 -0.079562 0.022569
0.038182 -0.070104 0.027400
-0.982305 0.144850 -0.029926
-0.952975 0.154085 -0.049781
-0.979030 0.164649 -0.017046
-0.945320 0.173135 -0.041006
-0.943718 0.112017 -0.080487
-0.896509 0.106846 -0.113741
-0.503058 0.346831 0.107924
-0.915789 0.123837 -0.094153
0.030363 0.057024 0.465561
-0.010384 0.030584 0.474641
-0.062805 0.000655 0.463149
-0.518665 0.348043 0.116554
-0.518131 0.348776 0.100571
-0.518220 0.346445 0.136025
0.182831 -0.036422 0.607410
0.241621 -0.049495 0.603432
0.197496 -0.036967 0.610504
-0.127475 0.026630 -0.306357
0.369738 -0.313794 0.158110
0.331710 -0.304491 0.139974
0.350374 -0.312486 0.129797
0.439848 0.074554 0.555648
0.369348 -0.316850 0.140232
0.448849 -0.227209 0.424733
0.393132 -0.207788 0.434573
0.314110 -0.093753 -0.265970
0.336788 -0.093545 -0.265030
0.379544 -0.111288 -0.254388
0.358546 -0.092234 -0.263624
0.269237 -0.074993 -0.275602
0.291133 -0.075452 -0.275338
0.510146 -0.315020 0.254405
0.495119 -0.304143 0.278312
0.519182 -0.311915 0.269376
-0.598233 0.232411 0.451735
-0.423163 -0.268903 -0.000839
-0.389333 -0.258134 -0.025087
-0.494048 0.017995 0.571830
-0.506033 0.028757 0.568267
-0.554157 0.024564 0.556848
-0.685879 0.031061 0.515507
-0.738996 0.035558 0.495013
0.438343 -0.252874 -0.168061
0.470682 -0.239689 -0.179551
-0.187407 0.008984 0.618084
-0.250842 0.013518 0.612008
-0.132290 0.008332 0.621246
-0.122729 0.005269 0.622701
-0.058072 0.088469 -0.186847
-0.078352 0.106442 -0.186125
-0.076221 0.108971 -0.179176
-0.055929 -0.002037 0.626437
-0.106719 -0.003169 0.625305
-0.106535 -0.004816 0.624799
0.542462 0.263499 0.357507
0.504585 0.262330 0.357776
0.524106 0.274410 0.329205
-1.078609 0.121919 0.218912
-1.093628 0.099464 0.209592
-1.074639 0.107313 0.248315
0.638138 -0.099668 0.530830
0.646131 -0.112386 0.522777
-0.465144 -0.264116 -0.030522
-0.684875 -0.269677 0.241783
0.751494 -0.258227 0.360712
0.707601 -0.255269 0.381217
0.712458 -0.240017 0.399412
0.341401 -0.311207 0.005773
0.361387 -0.318803 0.023094
0.354444 -0.313120 -0.008328
0.871355 -0.185569 -0.074331
-0.032525 0.060653 -0.114779
0.332986 -0.304106 -0.025700
-0.037448 0.065520 -0.122087
0.603104 -0.030994 -0.239825
0.578029 -0.018089 -0.246004
0.538018 -0.025501 -0.256747
0.536740 -0.286901 0.338326
0.536401 -0.272158 0.367173
-0.568550 0.361288 0.136552
-0.558571 0.362145 0.110993
-0.576034 0.362800 0.115238
0.436910 -0.325622 0.079999
0.056995 -0.031949 0.352932
0.072783 -0.047469 0.359596
0.030015 -0.003578 0.358049
-0.520755 0.355839 0.156828
-0.054055 0.012324 0.236015
-0.035748 0.040642 0.224340
-0.055363 0.007921 0.205763
-0.201379 -0.188737 -0.095835
1.062830 0.074687 0.200234
1.049727 0.089751 0.216344
0.407163 -0.317264 0.067344
0.421331 -0.321413 0.074002
0.066458 -0.009945 -0.310206
0.058214 -0.009812 -0.308912
0.117948 -0.020264 -0.308717
0.548812 0.263782 0.277735
0.546698 0.273046 0.249218
0.542360 0.281261 0.218878
0.582786 0.284098 0.217653
0.410563 -0.317826 0.091498
-0.162765 -0.182108 -0.061949
-0.164078 -0.189081 -0.034921
-0.133955 -0.163438 -0.065073
-0.519938 0.346886 0.206970
-0.498532 0.340942 0.220482
-0.503153 0.345802 0.202221
0.324402 -0.294554 -0.055672
0.111238 0.058448 -0.193563
0.463553 -0.121769 -0.238457
0.523055 -0.131272 -0.223664
0.325507 -0.269810 0.255003
0.342471 -0.280534 0.243833
0.336341 -0.281073 0.235292
0.047500 -0.036830 -0.148513
0.073108 -0.076131 -0.138570
0.061047 -0.055586 -0.152084
-0.507741 0.334633 0.249031
-0.482371 0.327520 0.260698
-0.492772 0.334960 0.240971
-0.059721 0.130871 0.276149
-0.064707 0.130625 0.289653
-0.047035 0.112151 0.295960
0.494569 0.101752 0.525714
0.545990 0.110190 0.511028