# vtk DataFile Version 2.0
Simplicial Mesh Example
ASCII
DATASET UNSTRUCTURED_GRID
POINTS 9769 double
-1.233746e+04 -3.653060e+04 -2.489835e+05
-1.135582e+04 -3.558715e+04 -2.491763e+05
-1.250281e+04 -3.509066e+04 -2.491913e+05
-1.092068e+04 -3.419548e+04 -2.493832e+05
-3.063912e+04 -2.852440e+04 -2.484497e+05
-3.080408e+04 -2.719742e+04 -2.485898e+05
-2.922690e+04 -2.768800e+04 -2.487275e+05
-2.744826e+04 -2.947836e+04 -2.487330e+05
-2.611224e+04 -2.845943e+04 -2.489960e+05
-2.637420e+04 -2.714402e+04 -2.490993e+05
-2.795639e+04 -2.664826e+04 -2.489742e+05
-2.765975e+04 -2.818284e+04 -2.488528e+05
-5.802992e+04 -2.255995e+04 -2.441788e+05
-5.819171e+04 -2.119598e+04 -2.442647e+05
-5.632055e+04 -2.042785e+04 -2.447668e+05
-5.675955e+04 -2.145355e+04 -2.445786e+05
-5.764680e+04 -2.006971e+04 -2.444955e+05
-6.118283e+04 -2.169037e+04 -2.434902e+05
-5.909502e+04 -1.966443e+04 -2.441768e+05
-3.921988e+04 -2.416121e+04 -2.477233e+05
-3.759070e+04 -2.441142e+04 -2.479422e+05
-4.033491e+04 -2.635777e+04 -2.473129e+05
-3.869943e+04 -2.660876e+04 -2.475478e+05
-4.084906e+04 -2.391100e+04 -2.475045e+05
-5.007196e+04 -2.456566e+04 -2.457442e+05
-5.049023e+04 -2.192660e+04 -2.458994e+05
-4.890133e+04 -2.231784e+04 -2.461944e+05
-3.542847e+04 -2.711072e+04 -2.480176e+05
-3.382998e+04 -2.757044e+04 -2.481664e+05
-3.205095e+04 -2.686788e+04 -2.484739e+05
-3.270315e+04 -2.516205e+04 -2.485987e+05
-3.433234e+04 -2.491184e+04 -2.483798e+05
-2.026879e+04 -2.969289e+04 -2.493778e+05
-2.002750e+04 -3.132612e+04 -2.492007e+05
-2.437141e+04 -3.072969e+04 -2.489011e+05
-2.451188e+04 -2.908383e+04 -2.491059e+05
-2.321881e+04 -2.815832e+04 -2.493404e+05
-4.729833e+04 -2.266191e+04 -2.464686e+05
-4.845632e+04 -2.489153e+04 -2.460207e+05
-3.112076e+04 -2.565672e+04 -2.487241e+05
-3.223455e+04 -2.804742e+04 -2.483080e+05
-5.366805e+04 -2.114412e+04 -2.453093e+05
-5.644937e+04 -2.298849e+04 -2.445122e+05
-5.499430e+04 -2.078599e+04 -2.450381e+05
-2.479201e+04 -2.763979e+04 -2.492243e+05
-2.585477e+04 -2.996041e+04 -2.488727e+05
-2.140468e+04 -3.226825e+04 -2.489579e+05
-1.855762e+04 -3.209677e+04 -2.492186e+05
-1.992131e+04 -3.303753e+04 -2.489863e+05
-1.879378e+04 -3.046017e+04 -2.493966e+05
-1.731877e+04 -3.122746e+04 -2.494153e+05
-1.843795e+04 -3.380682e+04 -2.490147e+05
-1.719895e+04 -3.293953e+04 -2.492196e+05
-4.522504e+04 -2.554327e+04 -2.465739e+05
-4.568775e+04 -2.298057e+04 -2.467317e+05
-5.486166e+04 -2.339999e+04 -2.448321e+05
-5.621073e+03 -4.005124e+04 -2.486932e+05
-4.573551e+03 -3.715910e+04 -2.491834e+05
-6.785660e+03 -3.594008e+04 -2.493079e+05
3.013014e+04 -6.910702e+04 -2.404587e+05
2.797045e+04 -7.113076e+04 -2.401293e+05
2.548381e+04 -6.878317e+04 -2.410871e+05
2.765599e+04 -6.677177e+04 -2.414124e+05
-8.951216e+03 -3.502641e+04 -2.493474e+05
-9.262409e+03 -3.784003e+04 -2.489464e+05
-4.197039e+04 -2.610679e+04 -2.470779e+05
-2.904369e+04 -2.900138e+04 -2.485913e+05
-6.275490e+04 -2.124888e+04 -2.431343e+05
-6.080548e+04 -1.918576e+04 -2.438003e+05
-4.407717e+04 -2.329922e+04 -2.469948e+05
9.672555e+03 -5.064339e+04 -2.466473e+05
-1.563958e+03 -4.292456e+04 -2.482813e+05
-3.592516e+03 -4.148790e+04 -2.484873e+05
1.882375e+02 -4.063787e+04 -2.486631e+05
2.809387e+03 -4.275184e+04 -2.483185e+05
1.221230e+04 -5.301729e+04 -2.460158e+05
1.782227e+04 -6.183546e+04 -2.436350e+05
1.515679e+04 -5.960156e+04 -2.443540e+05
1.738488e+04 -5.763765e+04 -2.446769e+05
2.776751e+03 -4.730942e+04 -2.474550e+05
5.058173e+03 -4.542200e+04 -2.477729e+05
5.039007e+03 -4.999167e+04 -2.469075e+05
7.306959e+03 -4.809216e+04 -2.472273e+05
-5.326716e+04 -2.379533e+04 -2.451391e+05
-5.207914e+04 -2.153536e+04 -2.456043e+05
5.144963e+02 -4.462716e+04 -2.480024e+05
-3.596152e+04 -2.466163e+04 -2.481610e+05
-3.706395e+04 -2.685974e+04 -2.477827e+05
2.515880e+04 -6.444035e+04 -2.423141e+05
2.297311e+04 -6.643977e+04 -2.419909e+05
2.261297e+04 -6.213874e+04 -2.431532e+05
1.475204e+04 -5.539119e+04 -2.453842e+05
1.250806e+04 -5.734532e+04 -2.450609e+05
-2.288804e+04 -3.149897e+04 -2.489295e+05
-2.164825e+04 -3.063970e+04 -2.491514e+05
-2.174380e+04 -2.892561e+04 -2.493591e+05
-2.323003e+03 -3.880326e+04 -2.489374e+05
-7.649631e+03 -3.861457e+04 -2.488992e+05
2.041278e+04 -6.412689e+04 -2.428309e+05
2.003530e+04 -5.986003e+04 -2.439553e+05
-5.167266e+04 -2.419067e+04 -2.454461e+05
-4.246658e+04 -2.361787e+04 -2.472579e+05
-4.360587e+04 -2.585581e+04 -2.468430e+05
-1.434672e+04 -3.275000e+04 -2.494456e+05
-1.584376e+04 -3.199474e+04 -2.494340e+05
-1.563359e+04 -3.358045e+04 -2.492556e+05
-2.312817e+04 -2.987488e+04 -2.491227e+05
-1.271318e+04 -3.343920e+04 -2.494159e+05
-1.411066e+04 -3.438507e+04 -2.492138e+05
-1.387498e+04 -3.587589e+04 -2.490020e+05
9.964145e+03 -5.494919e+04 -2.456927e+05
-1.541251e+04 -3.522118e+04 -2.490206e+05
-4.684068e+04 -2.521740e+04 -2.462973e+05
-2.953857e+04 -2.615249e+04 -2.488492e+05
-1.695003e+04 -3.456647e+04 -2.490391e+05
-5.961047e+04 -2.213141e+04 -2.438453e+05
7.420233e+03 -5.255307e+04 -2.463244e+05
-1.079993e+04 -3.718531e+04 -2.489650e+05
1.495822e+04 -1.449321e+04 -2.510906e+05
1.539993e+04 -1.734304e+04 -2.508900e+05
2.825770e+04 -3.186891e+04 -2.483334e+05
2.781701e+04 -3.361868e+04 -2.481673e+05
2.895185e+04 -3.481219e+04 -2.478975e+05
2.928051e+04 -3.303862e+04 -2.480815e+05
3.093099e+04 -3.253610e+04 -2.479662e+05
3.037031e+04 -3.422003e+04 -2.477955e+05
3.825428e+04 -4.141124e+04 -2.455851e+05
3.662912e+04 -4.175228e+04 -2.457822e+05
3.317589e+04 -3.981035e+04 -2.465754e+05
3.456395e+04 -3.920769e+04 -2.464828e+05
3.350441e+04 -3.795594e+04 -2.468141e+05
3.518882e+04 -3.756156e+04 -2.466476e+05
4.209807e+04 -4.669660e+04 -2.440300e+05
4.068640e+04 -4.722709e+04 -2.441529e+05
4.171732e+04 -4.839214e+04 -2.437496e+05
4.003531e+04 -4.888664e+04 -2.439485e+05
8.988085e+03 -1.221757e+04 -2.515243e+05
3.907471e+04 -4.757969e+04 -2.443395e+05
1.349151e+04 -1.273577e+04 -2.512804e+05
1.152350e+04 -1.267725e+04 -2.513952e+05
4.116134e+04 -5.003754e+04 -2.435088e+05
4.284441e+04 -4.952638e+04 -2.433132e+05
4.322585e+04 -4.785960e+04 -2.435897e+05
2.634775e+04 -2.774326e+04 -2.490388e+05
2.492586e+04 -2.836640e+04 -2.491159e+05
2.601447e+04 -2.951791e+04 -2.488595e+05
2.440096e+04 -3.004637e+04 -2.489680e+05
1.571514e+04 -2.006298e+04 -2.506994e+05
1.739439e+04 -1.967583e+04 -2.506151e+05
1.756487e+04 -1.761657e+04 -2.507532e+05
1.631460e+04 -1.611846e+04 -2.509150e+05
1.429677e+04 -1.613873e+04 -2.510271e+05
1.306038e+04 -1.459487e+04 -2.511917e+05
1.251786e+04 -1.623235e+04 -2.511184e+05
1.358362e+04 -1.750922e+04 -2.509787e+05
2.213151e+04 -2.765632e+04 -2.494945e+05
2.271475e+04 -2.597819e+04 -2.496048e+05
2.407601e+04 -2.532543e+04 -2.495566e+05
2.381688e+04 -2.718451e+04 -2.493782e+05
3.921523e+04 -4.273258e+04 -2.451963e+05
3.763198e+04 -4.312466e+04 -2.453777e+05
3.874891e+04 -4.456942e+04 -2.449417e+05
1.145211e+04 -1.495547e+04 -2.512580e+05
3.211988e+04 -3.856081e+04 -2.469059e+05
3.412624e+04 -3.630385e+04 -2.469787e+05
3.106387e+04 -3.731127e+04 -2.472364e+05
3.246101e+04 -3.670257e+04 -2.471429e+05
3.140799e+04 -3.545491e+04 -2.474712e+05
5.589840e+04 -5.676971e+04 -2.390704e+05
5.378342e+04 -5.888983e+04 -2.390422e+05
5.380723e+04 -5.575881e+04 -2.397817e+05
5.183276e+04 -5.795033e+04 -2.396978e+05
3.423190e+04 -4.105990e+04 -2.462448e+05
3.000786e+04 -3.606173e+04 -2.475670e+05
3.621121e+04 -4.364156e+04 -2.455071e+05
2.704126e+04 -3.068424e+04 -2.486079e+05
5.062341e+04 -5.404188e+04 -2.408645e+05
4.985222e+04 -5.524630e+04 -2.407509e+05
5.206738e+04 -5.489310e+04 -2.403694e+05
5.002876e+04 -5.705076e+04 -2.402994e+05
3.716571e+04 -4.495427e+04 -2.451179e+05
4.509612e+04 -5.182840e+04 -2.424340e+05
4.453942e+04 -5.349023e+04 -2.421900e+05
4.622842e+04 -5.293333e+04 -2.419940e+05
4.791028e+04 -5.229810e+04 -2.418026e+05
4.747677e+04 -5.371475e+04 -2.415711e+05
5.817740e+04 -5.779827e+04 -2.382829e+05
5.605281e+04 -5.991611e+04 -2.382691e+05
-4.844380e+04 3.687166e+04 -2.445356e+05
-4.633777e+04 3.900463e+04 -2.446129e+05
-4.581169e+04 3.464403e+04 -2.453656e+05
-4.368860e+04 3.676275e+04 -2.454447e+05
2.863937e+04 -3.013968e+04 -2.485025e+05
1.464938e+04 -1.878610e+04 -2.508391e+05
3.625140e+04 -3.881927e+04 -2.463166e+05
3.561763e+04 -4.045977e+04 -2.461522e+05
1.785323e+04 -2.259629e+04 -2.503097e+05
1.844355e+04 -2.092360e+04 -2.504162e+05
1.977030e+04 -2.023363e+04 -2.503705e+05
1.951162e+04 -2.218741e+04 -2.502142e+05
4.436014e+04 -4.901642e+04 -2.431473e+05
3.306367e+04 -3.504614e+04 -2.473097e+05
4.017618e+04 -4.405392e+04 -2.448075e+05
1.629162e+04 -1.854579e+04 -2.507646e+05
-7.960906e+03 3.441620e+03 -2.518037e+05
-6.901974e+03 -3.631614e+02 -2.518799e+05
-5.383634e+03 2.076760e+03 -2.519005e+05
-1.088666e+04 4.991030e+03 -2.516938e+05
-1.130171e+04 1.967184e+03 -2.516971e+05
4.582768e+04 -5.443496e+04 -2.417339e+05
4.878107e+04 -5.455579e+04 -2.411217e+05
4.717601e+04 -5.530333e+04 -2.412716e+05
2.749356e+04 -2.894147e+04 -2.487707e+05
4.926685e+04 -5.316999e+04 -2.413335e+05
2.058154e+04 -2.345334e+04 -2.500115e+05
2.299958e+04 -2.405248e+04 -2.497601e+05
-1.666051e+04 9.083336e+03 -2.512394e+05
-1.614897e+04 4.983797e+03 -2.513964e+05
1.892280e+04 -2.386130e+04 -2.501059e+05
4.397044e+04 -5.067728e+04 -2.428736e+05
4.549443e+04 -5.017324e+04 -2.427050e+05
3.729334e+04 -4.008990e+04 -2.459738e+05
3.525671e+04 -4.232885e+04 -2.458963e+05
2.520194e+04 -2.654505e+04 -2.493070e+05
2.084673e+04 -2.150658e+04 -2.501671e+05
2.165067e+04 -2.471833e+04 -2.498077e+05
2.192316e+04 -2.277953e+04 -2.499636e+05
-2.194706e+04 1.379335e+04 -2.506223e+05
-1.950554e+04 1.122308e+04 -2.509871e+05
-2.180267e+04 9.237037e+03 -2.508832e+05
-2.671924e+04 1.904172e+04 -2.498421e+05
-3.118992e+04 1.973752e+04 -2.492434e+05
-2.893778e+04 1.704242e+04 -2.497371e+05
-1.897582e+04 7.110417e+03 -2.511398e+05
4.228737e+04 -5.118844e+04 -2.430692e+05
-3.598529e+04 2.966622e+04 -2.476348e+05
-1.381548e+04 6.943596e+03 -2.514916e+05
-2.434846e+04 1.640642e+04 -2.502462e+05
-2.658770e+04 1.441866e+04 -2.501422e+05
[...]
POINT_DATA 9769
VECTORS displacement double
-0.00077698 0.00098524 0.04208060
0.00234276 0.00221942 0.03821327
0.00276397 0.00204240 0.03936942
0.00483902 0.00311495 0.03541977
0.00899262 0.01456611 0.04579742
0.00965294 0.01362033 0.04297824
0.00906564 0.01312822 0.04277040
0.00706699 0.01324296 0.04412206
0.00733027 0.00878786 0.04434234
0.00812598 0.00916334 0.04176552
0.00900176 0.01136404 0.04064479
0.00843571 0.01221063 0.04275849
0.03063908 0.00136905 0.02827944
0.02041423 -0.00536521 0.02840077
0.01506186 -0.00362997 0.03089116
0.02009475 -0.00055748 0.02993947
0.01509896 -0.00766090 0.02987382
0.02855489 -0.01564896 0.01835548
0.01402277 -0.01198085 0.02892446
0.01348593 0.01880294 0.03598568
0.01294355 0.01893372 0.03620089
0.01703799 0.02354591 0.03998300
0.01594997 0.02345168 0.03998185
0.01363361 0.01825087 0.03590796
0.02447204 0.01726366 0.03727478
0.01442862 0.00868677 0.03458672
0.01444278 0.01115045 0.03504329
0.01310989 0.02048109 0.04208686
0.01118724 0.01528415 0.04567304
0.01003361 0.01404861 0.04315579
0.01093381 0.01445950 0.03992747
0.01173246 0.01677628 0.03906685
0.00488515 -0.00025733 0.04063675
0.00326015 -0.00107921 0.04340764
0.00334527 -0.00045106 0.04725111
0.00547444 0.00302958 0.04525679
0.00615918 0.00251483 0.04211013
0.01422434 0.01304939 0.03568090
0.02287299 0.01908360 0.03803664
0.01017958 0.01308720 0.04021488
0.00974384 0.01490775 0.04592479
0.01462189 0.00320786 0.03256237
0.02942823 0.00615061 0.03061131
0.01473842 0.00001362 0.03179522
0.00709811 0.00579624 0.04260517
0.00595734 0.00573132 0.04615127
0.00146097 -0.00129065 0.04716387
0.00297991 -0.00130081 0.04278333
0.00088347 -0.00174514 0.04688209
0.00459423 -0.00055115 0.03981587
0.00442412 -0.00032472 0.03888518
0.00056782 -0.00202932 0.04662558
0.00266688 -0.00081605 0.04225122
0.02024144 0.02100416 0.04020297
0.01389947 0.01455927 0.03603624
0.02824781 0.00975692 0.03247748
-0.00510662 -0.00603117 0.02632041
0.00277711 -0.00078652 0.02840176
0.00415648 0.00108092 0.03175255
-0.02250644 0.01961971 0.00609827
-0.02534071 0.02589965 0.00151218
-0.02688681 0.01733784 0.00401705
-0.02119961 0.01780888 0.00753923
0.00471474 0.00298891 0.03389558
-0.00165625 0.00056341 0.03703997
0.01820172 0.02337500 0.03962582
0.00829892 0.01390160 0.04505870
0.02147721 -0.03138616 0.01028264
0.01420845 -0.01644806 0.02746931
0.01394870 0.01588228 0.03604092
-0.01241043 0.00293884 0.00933400
-0.00952989 -0.00295505 0.01773791
-0.00690758 -0.00380140 0.02269150
-0.00202942 -0.00151456 0.02107959
-0.00504117 -0.00249685 0.01543065
-0.01371511 0.00457399 0.00934138
-0.02280374 0.00815894 0.00747660
-0.02097656 0.00670036 0.00848709
-0.01641135 0.00759225 0.00944834
-0.01469616 -0.00197073 0.00650259
-0.00830949 -0.00122743 0.01105171
-0.01640929 0.00045433 0.00655815
-0.01050832 0.00088630 0.00928820
0.02695139 0.01244773 0.03466410
0.01463829 0.00621971 0.03367581
-0.01062392 -0.00368957 0.01104638
0.01247957 0.01846446 0.03729138
0.01474220 0.02327762 0.03983449
-0.02038636 0.01433864 0.00789413
-0.02638322 0.01277567 0.00524317
-0.01912621 0.01153976 0.00835995
-0.01501827 0.00608047 0.00949681
-0.01913533 0.00533126 0.00850607
0.00193080 -0.00087512 0.04717613
0.00349399 -0.00072086 0.04431721
0.00543338 0.00054195 0.04142872
0.00024898 -0.00125097 0.02494455
-0.00258099 -0.00424082 0.03232329
-0.02487465 0.00995363 0.00630411
-0.01769115 0.00928942 0.00881861
0.02585452 0.01495393 0.03616912
0.01373278 0.01723337 0.03587643
0.01913793 0.02260098 0.03985665
0.00456436 0.00165268 0.03732316
0.00444701 0.00057822 0.03795519
0.00300338 0.00079260 0.04106181
0.00430438 0.00008899 0.04488071
0.00474082 0.00258355 0.03645808
0.00290946 0.00178109 0.04070545
-0.00007234 0.00117238 0.04386426
-0.01776999 0.00414283 0.00817052
0.00025036 0.00158283 0.04523516
0.02146675 0.02010462 0.03914307
0.00958618 0.01227622 0.04024996
0.00045293 -0.00039388 0.04624007
0.03082642 -0.00515521 0.02308067
-0.01690454 0.00278355 0.00749236
-0.00110722 0.00119417 0.03955911
0.00360065 0.00024896 0.01454691
0.00120032 0.00271521 0.01504086
-0.00608578 0.01152944 0.02164697
-0.00725248 0.01220028 0.02076174
-0.00768877 0.01313061 0.02117750
-0.00664189 0.01227893 0.02192512
-0.00641218 0.01194265 0.02317300
-0.00712857 0.01302642 0.02235966
-0.01000518 0.01583849 0.02371676
-0.00974630 0.01700236 0.02324759
-0.00926640 0.01657281 0.02194733
-0.00906158 0.01592000 0.02296802
-0.00861777 0.01530128 0.02289016
-0.00856703 0.01452525 0.02382858
-0.01155191 0.01574829 0.02224067
-0.01069313 0.01702709 0.02236611
-0.01095210 0.01647875 0.02182718
-0.00854852 0.01809712 0.02205150
0.00127905 -0.00459090 0.00884266
-0.00884610 0.01878463 0.02267193
0.00451465 -0.00161896 0.01283677
0.00348406 -0.00245305 0.01097813
-0.00879278 0.01708297 0.02166168
-0.01119452 0.01578617 0.02156619
-0.01189418 0.01531547 0.02171042
-0.00393390 0.00916950 0.02160320
-0.00422318 0.00958139 0.02055569
-0.00485154 0.01017586 0.02093726
-0.00523511 0.01026323 0.01986454
-0.00160752 0.00501043 0.01538716
0.00013579 0.00464677 0.01673510
0.00179888 0.00289790 0.01697055
0.00267791 0.00164814 0.01594020
0.00167469 0.00157444 0.01395801
0.00223111 -0.00011142 0.01253576
-0.00047297 0.00037983 0.01238253
-0.00076706 0.00266597 0.01341047
-0.00396430 0.00945800 0.01921295
-0.00292412 0.00849407 0.01982021
-0.00254929 0.00787671 0.02075008
-0.00357568 0.00901356 0.02015792
-0.01043773 0.01604272 0.02346824
-0.01000654 0.01735551 0.02322046
-0.01026199 0.01748015 0.02300232
-0.00026469 -0.00030834 0.01117389
-0.00891626 0.01580267 0.02190708
-0.00805267 0.01395529 0.02380421
-0.00856580 0.01489937 0.02179768
-0.00813465 0.01451762 0.02283200
-0.00762900 0.01379897 0.02270385
-0.01367333 0.01210191 0.02180313
-0.01584217 0.00999685 0.02090502
-0.01316441 0.01158764 0.02196177
-0.01450461 0.00928152 0.02174379
-0.00955054 0.01729202 0.02213610
-0.00818144 0.01402306 0.02163876
-0.00948966 0.01852066 0.02269609
-0.00546322 0.01083031 0.02127125
-0.01279445 0.01168560 0.02166115
-0.01263269 0.01079890 0.02183887
-0.01291722 0.01139118 0.02189026
-0.01292957 0.00938131 0.02197903
-0.00936019 0.01889898 0.02266076
-0.01154902 0.01391024 0.02136760
-0.00908660 0.01521022 0.02120769
-0.01154481 0.01301533 0.02106328
-0.01258923 0.01277946 0.02117965
-0.01189957 0.01212241 0.02153215
-0.01441907 0.01208859 0.02027431
-0.01657394 0.01424850 0.01869065
-0.00891971 0.00849241 0.02204267
-0.00994009 0.01000462 0.02112302
-0.00729439 0.00864175 0.02275121
-0.00842914 0.00930755 0.02166450
-0.00522205 0.01052105 0.02241285
-0.00125063 0.00392383 0.01450998
-0.00906803 0.01504410 0.02388030
-0.00941678 0.01652571 0.02314451
-0.00221849 0.00700425 0.01693909
-0.00045032 0.00560200 0.01748941
0.00037962 0.00484613 0.01856025
-0.00105267 0.00645551 0.01820783
-0.01216159 0.01476915 0.02142909
-0.00750844 0.01333006 0.02370449
-0.01080110 0.01610077 0.02312311
0.00058061 0.00373472 0.01585020
0.01217202 0.01462791 0.01301407
0.01116325 0.01315068 0.01902037
0.01180758 0.01420841 0.01139749
0.01197964 0.01396299 0.01567772
0.01371887 0.01661454 0.01858984
-0.00935699 0.01225671 0.02190395
-0.01229064 0.01123393 0.02167690
-0.01050249 0.01095853 0.02209228
-0.00457913 0.00984534 0.02202786
-0.01271749 0.01215798 0.02142004
-0.00167219 0.00721227 0.01886093
-0.00181441 0.00720241 0.02032466
0.01053451 0.01167514 0.02080287
0.01486551 0.01472514 0.02141837
-0.00265374 0.00775812 0.01770581
-0.01133416 0.01492579 0.02149500
-0.01234265 0.01409641 0.02124425
-0.00954623 0.01547040 0.02385900
-0.00958779 0.01805849 0.02250950
-0.00323907 0.00850972 0.02115022
-0.00039238 0.00570059 0.01924173
-0.00227971 0.00790372 0.01939348
-0.00108751 0.00649815 0.01985662
0.00803527 0.00841021 0.02415345
0.00964329 0.00992375 0.02272770
0.01465473 0.01020658 0.02343618
0.00473352 0.00621753 0.02497960
0.00549515 0.00359755 0.02460054
0.00828621 0.00446325 0.02441634
0.01489966 0.01287396 0.02178232
-0.00887932 0.01614929 0.02168950
-0.00279857 0.00680614 0.02331051
0.01138614 0.01298285 0.01870619
0.00652940 0.00714563 0.02459368
0.01049963 0.00577924 0.02429013
-0.00669194 0.00850222 0.02209309
-0.00424319 0.00650711 0.02383515
-0.00454367 0.00979075 0.01948712
0.01126782 0.01278886 0.01540297
-0.01235388 0.01339350 0.02115176
0.01245151 0.00763561 0.02403802
0.01458282 0.01615650 0.02008242
-0.00302003 0.00845953 0.01828182
0.00104465 0.00393742 0.01781324
0.00573308 -0.00356540 0.01093009
0.01146940 0.01263248 0.01114113
-0.00597671 0.00785384 0.02327673
0.00304839 0.00597139 0.02477888
0.00269704 0.00452760 0.02460756
-0.00480366 0.00761410 0.02267517
-0.00213774 0.00506472 0.02415729
0.00110788 0.00590849 0.02461676
-0.00078329 0.00611720 0.02394843
0.00955488 0.00736956 0.02057670
0.00804509 -0.00215595 0.02022770
-0.00895266 0.01510209 0.02183966
0.00662020 -0.00564342 0.00871975
0.00175902 -0.00715060 0.00756419
-0.01125147 0.01597270 0.02268200
-0.01049327 0.01739488 0.02278185
0.01250309 0.01534602 0.01835733
-0.00192325 0.00609490 0.01615081
-0.00590877 0.01083178 0.02020785
-0.00342233 0.00901167 0.01886024
-0.00583371 0.01124115 0.02279820
-0.00656204 0.01147899 0.02048218
-0.01143998 0.01004813 0.02203469
-0.00905863 0.01895446 0.02261105
-0.00697131 0.01265100 0.02347542
0.00027922 0.00397598 0.02447329
0.00770324 -0.00805091 0.00587693
0.00893011 -0.01032448 0.00297495
0.01063608 -0.00300183 0.01468861
0.00008396 -0.00217819 0.00976036
0.00372058 -0.01168566 0.00629060
0.00237367 -0.00945903 0.00635611
0.00551428 -0.01297721 0.00953161
0.01010755 -0.01266407 0.00226645
0.00685108 -0.01062218 0.01507153
0.02048238 -0.04002858 -0.05011333
0.02119815 -0.04469161 -0.04964277
0.01914478 -0.03858956 -0.05438525
0.01855043 -0.03367233 -0.05397248
0.01989288 -0.03581977 -0.04964288
0.02047073 -0.04200812 -0.05195031
0.02141466 -0.04626890 -0.04839026
0.02105926 -0.04238491 -0.04853696
0.02148261 -0.04382777 -0.04711087
0.02140591 -0.04070305 -0.04627713
0.02235021 -0.04931137 -0.04592683
0.02342139 -0.04556526 -0.04150912
0.03490543 -0.05018243 0.02908308
0.02624757 -0.03708256 0.01917141
0.03108557 -0.04475745 0.01925320
0.03361651 -0.06226689 0.03616649
0.01766826 -0.03066360 -0.05597963
0.02064284 -0.03842845 -0.04805175
0.02230227 -0.04293074 -0.04409318
0.02385951 -0.05350477 -0.04243436
-0.01438173 0.03228550 -0.00550108
-0.01470875 0.02256126 0.00365764
0.01711458 -0.02660546 -0.05539274
0.01757574 -0.02952202 -0.05684649
0.01783415 -0.03126066 -0.05886810
-0.01942372 0.03637166 -0.01042394
-0.01436542 0.03609659 -0.00992078
-0.01484996 0.03807249 -0.01298555
0.01961135 -0.03188317 -0.05955345
0.03361265 -0.06551053 -0.01142363
0.03165670 -0.07081002 -0.01299280
0.03171870 -0.07165152 -0.00856303
0.03444522 -0.06610074 -0.00605828
0.03260311 -0.07355091 -0.00289576
0.01822535 -0.03000027 -0.05284857
0.01595473 -0.02302345 -0.05601498
0.01772278 -0.02806722 -0.05437898
0.01755445 -0.03485235 -0.05656372
0.02651715 -0.05265261 -0.03426770
0.02587526 -0.05852058 -0.03783263
0.02480849 -0.04874645 -0.03840500
-0.02028764 0.03187042 -0.00227419
-0.02031345 0.03432351 -0.00568444
0.03430718 -0.07611042 0.00378527
0.03578008 -0.06691882 0.00041687
-0.01787715 0.03941379 -0.01765881
-0.01884825 0.03815561 -0.01406884
-0.01500955 0.03965163 -0.01609606
-0.01048465 0.03660779 -0.03653705
-0.00387267 0.03610489 -0.04628744
-0.00752789 0.04196138 -0.03475062
0.01619574 -0.03072922 -0.05854203
0.03744584 -0.08158407 0.01445824
0.04228874 -0.06860456 0.02079369
-0.01308869 0.04005544 -0.03062943
-0.01050964 0.04207126 -0.02635713
-0.01507493 0.04083274 -0.02544033
-0.01297384 0.04122463 -0.01992636
0.04196722 -0.06147763 0.03576920
0.04471244 -0.06780188 0.03222130
0.04041131 -0.07278305 0.03726379
0.01316368 -0.01506884 -0.05689364
0.01789149 -0.02074258 -0.06543903
0.01951898 -0.02800308 -0.06223770
0.00761149 0.01084689 -0.06539507
0.03830846 -0.06742637 0.00837364
0.04192295 -0.07905886 0.02934356
0.00335018 0.02301319 -0.05803443
0.03230884 -0.06426030 -0.01681293
0.03161571 -0.07002807 -0.01803604
-0.01649591 0.04033296 -0.02120257
0.01957114 -0.03681776 -0.05199483
0.00804924 -0.00256004 -0.05663044
-0.00232218 0.02104344 -0.04956713
0.03105887 -0.06823606 -0.02372141
0.01908240 -0.03294032 -0.05124320
0.00241788 0.01112631 -0.05405347
-0.00704197 0.03033914 -0.04331615
0.02880601 -0.06419456 -0.03089401
0.01338407 -0.00664698 -0.06857270
0.02877354 -0.05740399 -0.02888144
0.03088975 -0.06164394 -0.02268436
0.03945673 -0.05034758 -0.02543933
0.03645802 -0.04577661 -0.02377206
0.03719499 -0.04682177 -0.02748550
-0.01320198 0.01469350 -0.00960800
-0.00780641 0.01049512 -0.01222723
-0.00585905 0.00847761 -0.01371240
-0.00774362 0.01020043 -0.01275003
0.04511482 -0.05873227 -0.00079282
0.04436135 -0.05782244 0.00115232
0.04313001 -0.05628246 0.00337480
-0.01466157 0.01566927 -0.00888582
-0.01268542 0.01426307 -0.01047763
-0.01407226 0.01526196 -0.00991475
0.02601888 -0.03092335 -0.02644502
0.02626541 -0.03085665 -0.02896112
0.03030701 -0.03490622 -0.03114982
0.04315691 -0.05736552 -0.01940200
0.04294196 -0.05559073 -0.01625609
0.04187305 -0.05281396 -0.01435793
0.04161896 -0.05349700 -0.01815195
-0.00559028 0.00852628 -0.01332354
0.01439314 -0.01137937 -0.02848012
0.01037392 -0.00925998 -0.02536051
0.01775134 -0.01563379 -0.02998478
0.01303304 -0.01313492 -0.02635302
-0.01699876 0.01681069 -0.00771209
-0.01531143 0.01605050 -0.00942789
-0.01641268 0.01662061 -0.00904696
0.04548466 -0.05857746 -0.00528200
0.04503533 -0.06310746 -0.00966315
0.04546241 -0.06004287 -0.00925641
0.04504051 -0.05773826 -0.00757526
0.04139634 -0.05318437 -0.02310586
0.03848934 -0.04882405 -0.02187137
0.03676962 -0.04569043 -0.02020472
-0.02273060 0.01886925 -0.00673400
-0.02255959 0.01968687 -0.00904580
-0.01801096 0.01710102 -0.00730602
-0.01741389 0.01704859 -0.00879369
-0.02387696 0.02082370 -0.00958482
-0.02559707 0.02271340 -0.00893843
0.03235284 -0.03984748 -0.02664422
0.03042778 -0.03697512 -0.02764140
0.03244906 -0.03963674 -0.02351220
0.03435666 -0.04264796 -0.02548045
0.03550793 -0.04382662 -0.02865306
0.02503093 -0.02725521 -0.03217104
0.02276611 -0.02364017 -0.03168527
0.02130122 -0.02380455 -0.02939729
0.01865621 -0.02060459 -0.02745912
0.02118505 -0.02418758 -0.02739546
0.02837220 -0.03404979 -0.02836220
0.03229263 -0.03809486 -0.03041215
-0.01148113 0.01341711 -0.01043189
-0.01114857 0.01304961 -0.01114256
0.04223621 -0.06153230 -0.00238415
0.04372620 -0.05889473 0.00037412
0.04496331 -0.06034023 -0.00213466
0.04420480 -0.05953090 -0.01701881
0.04405297 -0.05726251 -0.01386595
0.04324736 -0.05489351 -0.01214755
-0.02581689 0.02199070 -0.00777533
-0.02779878 0.02658746 -0.01084774
0.04020767 -0.05807322 0.00089350
0.01177970 -0.00808134 -0.02565570
-0.02140354 0.01816615 -0.00668219
-0.02025856 0.01826326 -0.00861583
-0.02425831 0.01988156 -0.00705032
-0.02130580 0.01888860 -0.00871765
0.03461885 -0.04267155 -0.02196501
0.04513771 -0.06132005 -0.01425915
0.04497429 -0.05885075 -0.01162275
0.04448265 -0.06338325 -0.00715442
0.04572576 -0.06067402 -0.00697900
-0.00294484 0.00632941 -0.01466907
0.04383207 -0.06306888 -0.00465030
-0.01592067 0.01638351 -0.00824780
0.01920676 -0.02070158 -0.02915796
0.02371176 -0.02770536 -0.02705712
-0.00023887 0.00414777 -0.01613799
-0.00190491 0.00475695 -0.01614798
0.03031173 -0.03679462 -0.02471953
0.00922203 -0.00497937 -0.02348235
0.00373249 -0.00110928 -0.02064238
0.00682914 -0.00234203 -0.02128280
0.00567776 -0.00332548 -0.02219721
0.02030505 -0.01994527 -0.03087554
-0.01836187 0.01745455 -0.00862337
0.04554992 -0.06078594 -0.00473791
0.04543851 -0.05884419 -0.00316216
0.04019847 -0.05134600 -0.02002355
0.04236678 -0.05536342 -0.02129720
0.04430507 -0.05653597 -0.00987598
0.01592308 -0.01692391 -0.02712376
0.03392923 -0.04106314 -0.02960230
-0.00388387 0.00661773 -0.01484662
0.03863437 -0.04829489 -0.01835006
0.04033987 -0.05062738 -0.01644540
0.04533473 -0.06237984 -0.01194188
-0.01912735 0.01748094 -0.00693467
-0.02022449 0.01777287 -0.00676142
0.00226466 0.00195327 -0.01766922
-0.00000244 0.00288227 -0.01757673
0.00785629 -0.00609883 -0.02388484
0.03746091 -0.04916087 0.00745515
0.00461955 -0.00001657 -0.01936194
0.00188552 0.00097927 -0.01908268
-0.01930563 0.01782822 -0.00854228
0.04042417 -0.05231178 0.00319156
-0.00949427 0.01169138 -0.01191512
-0.00964155 0.01199032 -0.01131399
0.02760910 -0.03118911 -0.03207141
0.02380881 -0.02741110 -0.02932334
0.02819868 -0.03387398 -0.02568287
-0.02467517 0.01565677 0.00601148
-0.02452030 0.01557149 0.00630519
-0.02412940 0.01526899 0.00627527
-0.01985505 0.01276133 0.00962268
-0.02107938 0.01347914 0.00895633
-0.02212170 0.01407845 0.00821377
-0.02050530 0.01323255 0.00947625
-0.01930173 0.01253465 0.01010550
0.00204621 -0.00240783 0.01279401
0.00589889 -0.00525831 0.01238905
0.02584214 -0.02052460 0.00163442
0.02560835 -0.02028776 0.00174894
0.02564330 -0.02045636 0.00119619
0.00061520 -0.00131372 0.01295608
-0.00182638 0.00045625 0.01305408
0.00866916 -0.00733878 0.01204779
0.00971027 -0.00813257 0.01189727
-0.01665342 0.01086489 0.01118670
-0.01579837 0.01019134 0.01129259
-0.02158843 0.01388485 0.00885546
-0.01715611 0.01107530 0.01080177
-0.01534643 0.01000593 0.01159980
-0.01432798 0.00922053 0.01174389
0.02813359 -0.02305726 0.00537213
0.02849728 -0.02317185 0.00434594
-0.02396872 0.01526301 0.00699370
-0.02373991 0.01505084 0.00681316
-0.02342818 0.01485901 0.00716713
0.02391468 -0.02009763 0.00866664
0.02408083 -0.02009294 0.00836805
0.02689853 -0.02262844 0.00702006
0.02688904 -0.02236879 0.00683721
0.02809096 -0.02269229 0.00437299
0.02795011 -0.02246196 0.00373028
0.02753006 -0.02198075 0.00378919
-0.02346297 0.01496781 0.00746087
-0.01359612 0.00884911 0.01206100
-0.01853986 0.01195064 0.01023196
0.02580751 -0.02064789 0.00105352
0.02571808 -0.02070974 0.00054537
0.02558976 -0.02055028 0.00071553
0.02653062 -0.02099137 0.00270745
0.02719436 -0.02160966 0.00323083
0.02678422 -0.02120656 0.00324897
0.02603099 -0.02059124 0.00224684
0.02617507 -0.02066627 0.00277080
0.02011130 -0.01689056 0.00984876
0.02054977 -0.01716451 0.00975266
-0.02429183 0.01545588 0.00662339
-0.02397087 0.01518357 0.00652201
0.02566138 -0.02023077 0.00230691
0.01266909 -0.01047105 0.01147109
0.01346112 -0.01108697 0.01127637
0.01648165 -0.01368901 0.01073811
0.01707518 -0.01410427 0.01057582
-0.01100586 0.00710116 0.01256399
-0.01238271 0.00796029 0.01219689
-0.00948811 0.00602074 0.01269333
-0.02264726 0.01449192 0.00814423
-0.01798999 0.01172614 0.01066550
-0.00347517 0.00171022 0.01313159
-0.00573440 0.00338658 0.01299707
0.00464630 -0.00429269 0.01258063
-0.02292770 0.01455098 0.00759664
-0.00748811 0.00464455 0.01299079
0.02846016 -0.02353110 0.00543583
-0.02835863 0.01824672 0.00113012
-0.02817425 0.01815483 0.00052497
-0.02790984 0.01787194 0.00126443
-0.02410115 0.01520270 0.00607453
-0.02463738 0.01559699 0.00588812
-0.00193322 0.00016892 -0.00619257
-0.00210557 0.00030134 -0.00625984
-0.00356358 0.00133912 -0.00617776
-0.00325377 0.00109344 -0.00613264
-0.00451472 0.00200126 -0.00604819
-0.02521840 0.01598513 0.00544834
-0.02532706 0.01601440 0.00514963
-0.02590513 0.01644629 0.00486260
-0.00493933 0.00231702 -0.00608963
-0.00929568 0.00532295 -0.00554803
-0.00988507 0.00574419 -0.00553518
-0.01115405 0.00660118 -0.00526441
-0.01902965 0.01209376 -0.00438888
-0.01940882 0.01242915 -0.00447581
-0.01757937 0.01108961 -0.00457547
-0.02069301 0.01337657 -0.00429455
-0.02467903 0.01558550 0.00567267
-0.02851369 0.01853665 -0.00021078
-0.02860098 0.01851493 0.00045685
-0.02892952 0.01888638 -0.00025632
0.00881178 -0.00776880 -0.00604365
0.00908238 -0.00801419 -0.00605424
0.01304136 -0.01101052 -0.00561610
-0.02764715 0.01762776 0.00199673
-0.02805167 0.01797663 0.00180725
-0.00028344 -0.00103294 -0.00628824
-0.00039205 -0.00095864 -0.00632139
-0.02683035 0.01812259 -0.00367654
-0.01717536 0.01075108 -0.00450804
-0.01520643 0.00932583 -0.00464240
-0.01551560 0.00958673 -0.00473021
-0.00809363 0.00450498 -0.00577963
-0.00751768 0.00408256 -0.00576930