# vtk DataFile Version 2.0
Simplicial Mesh Example
ASCII
DATASET UNSTRUCTURED_GRID
POINTS 9769 double
-1.233746e+04 -3.653060e+04 -2.489835e+05
-1.135582e+04 -3.558715e+04 -2.491763e+05
-1.250281e+04 -3.509066e+04 -2.491913e+05
-1.092068e+04 -3.419548e+04 -2.493832e+05
-3.063912e+04 -2.852440e+04 -2.484497e+05
-3.080408e+04 -2.719742e+04 -2.485898e+05
-2.922690e+04 -2.768800e+04 -2.487275e+05
-2.744826e+04 -2.947836e+04 -2.487330e+05
-2.611224e+04 -2.845943e+04 -2.489960e+05
-2.637420e+04 -2.714402e+04 -2.490993e+05
-2.795639e+04 -2.664826e+04 -2.489742e+05
-2.765975e+04 -2.818284e+04 -2.488528e+05
-5.802992e+04 -2.255995e+04 -2.441788e+05
-5.819171e+04 -2.119598e+04 -2.442647e+05
-5.632055e+04 -2.042785e+04 -2.447668e+05
-5.675955e+04 -2.145355e+04 -2.445786e+05
-5.764680e+04 -2.006971e+04 -2.444955e+05
-6.118283e+04 -2.169037e+04 -2.434902e+05
-5.909502e+04 -1.966443e+04 -2.441768e+05
-3.921988e+04 -2.416121e+04 -2.477233e+05
-3.759070e+04 -2.441142e+04 -2.479422e+05
-4.033491e+04 -2.635777e+04 -2.473129e+05
-3.869943e+04 -2.660876e+04 -2.475478e+05
-4.084906e+04 -2.391100e+04 -2.475045e+05
-5.007196e+04 -2.456566e+04 -2.457442e+05
-5.049023e+04 -2.192660e+04 -2.458994e+05
-4.890133e+04 -2.231784e+04 -2.461944e+05
-3.542847e+04 -2.711072e+04 -2.480176e+05
-3.382998e+04 -2.757044e+04 -2.481664e+05
-3.205095e+04 -2.686788e+04 -2.484739e+05
-3.270315e+04 -2.516205e+04 -2.485987e+05
-3.433234e+04 -2.491184e+04 -2.483798e+05
-2.026879e+04 -2.969289e+04 -2.493778e+05
-2.002750e+04 -3.132612e+04 -2.492007e+05
-2.437141e+04 -3.072969e+04 -2.489011e+05
-2.451188e+04 -2.908383e+04 -2.491059e+05
-2.321881e+04 -2.815832e+04 -2.493404e+05
-4.729833e+04 -2.266191e+04 -2.464686e+05
-4.845632e+04 -2.489153e+04 -2.460207e+05
-3.112076e+04 -2.565672e+04 -2.487241e+05
-3.223455e+04 -2.804742e+04 -2.483080e+05
-5.366805e+04 -2.114412e+04 -2.453093e+05
-5.644937e+04 -2.298849e+04 -2.445122e+05
-5.499430e+04 -2.078599e+04 -2.450381e+05
-2.479201e+04 -2.763979e+04 -2.492243e+05
-2.585477e+04 -2.996041e+04 -2.488727e+05
-2.140468e+04 -3.226825e+04 -2.489579e+05
-1.855762e+04 -3.209677e+04 -2.492186e+05
-1.992131e+04 -3.303753e+04 -2.489863e+05
-1.879378e+04 -3.046017e+04 -2.493966e+05
-1.731877e+04 -3.122746e+04 -2.494153e+05
-1.843795e+04 -3.380682e+04 -2.490147e+05
-1.719895e+04 -3.293953e+04 -2.492196e+05
-4.522504e+04 -2.554327e+04 -2.465739e+05
-4.568775e+04 -2.298057e+04 -2.467317e+05
-5.486166e+04 -2.339999e+04 -2.448321e+05
-5.621073e+03 -4.005124e+04 -2.486932e+05
-4.573551e+03 -3.715910e+04 -2.491834e+05
-6.785660e+03 -3.594008e+04 -2.493079e+05
3.013014e+04 -6.910702e+04 -2.404587e+05
2.797045e+04 -7.113076e+04 -2.401293e+05
2.548381e+04 -6.878317e+04 -2.410871e+05
2.765599e+04 -6.677177e+04 -2.414124e+05
-8.951216e+03 -3.502641e+04 -2.493474e+05
-9.262409e+03 -3.784003e+04 -2.489464e+05
-4.197039e+04 -2.610679e+04 -2.470779e+05
-2.904369e+04 -2.900138e+04 -2.485913e+05
-6.275490e+04 -2.124888e+04 -2.431343e+05
-6.080548e+04 -1.918576e+04 -2.438003e+05
-4.407717e+04 -2.329922e+04 -2.469948e+05
9.672555e+03 -5.064339e+04 -2.466473e+05
-1.563958e+03 -4.292456e+04 -2.482813e+05
-3.592516e+03 -4.148790e+04 -2.484873e+05
1.882375e+02 -4.063787e+04 -2.486631e+05
2.809387e+03 -4.275184e+04 -2.483185e+05
1.221230e+04 -5.301729e+04 -2.460158e+05
1.782227e+04 -6.183546e+04 -2.436350e+05
1.515679e+04 -5.960156e+04 -2.443540e+05
1.738488e+04 -5.763765e+04 -2.446769e+05
2.776751e+03 -4.730942e+04 -2.474550e+05
5.058173e+03 -4.542200e+04 -2.477729e+05
5.039007e+03 -4.999167e+04 -2.469075e+05
7.306959e+03 -4.809216e+04 -2.472273e+05
-5.326716e+04 -2.379533e+04 -2.451391e+05
-5.207914e+04 -2.153536e+04 -2.456043e+05
5.144963e+02 -4.462716e+04 -2.480024e+05
-3.596152e+04 -2.466163e+04 -2.481610e+05
-3.706395e+04 -2.685974e+04 -2.477827e+05
2.515880e+04 -6.444035e+04 -2.423141e+05
2.297311e+04 -6.643977e+04 -2.419909e+05
2.261297e+04 -6.213874e+04 -2.431532e+05
1.475204e+04 -5.539119e+04 -2.453842e+05
1.250806e+04 -5.734532e+04 -2.450609e+05
-2.288804e+04 -3.149897e+04 -2.489295e+05
-2.164825e+04 -3.063970e+04 -2.491514e+05
-2.174380e+04 -2.892561e+04 -2.493591e+05
-2.323003e+03 -3.880326e+04 -2.489374e+05
-7.649631e+03 -3.861457e+04 -2.488992e+05
2.041278e+04 -6.412689e+04 -2.428309e+05
2.003530e+04 -5.986003e+04 -2.439553e+05
-5.167266e+04 -2.419067e+04 -2.454461e+05
-4.246658e+04 -2.361787e+04 -2.472579e+05
-4.360587e+04 -2.585581e+04 -2.468430e+05
-1.434672e+04 -3.275000e+04 -2.494456e+05
-1.584376e+04 -3.199474e+04 -2.494340e+05
-1.563359e+04 -3.358045e+04 -2.492556e+05
-2.312817e+04 -2.987488e+04 -2.491227e+05
-1.271318e+04 -3.343920e+04 -2.494159e+05
-1.411066e+04 -3.438507e+04 -2.492138e+05
-1.387498e+04 -3.587589e+04 -2.490020e+05
9.964145e+03 -5.494919e+04 -2.456927e+05
-1.541251e+04 -3.522118e+04 -2.490206e+05
-4.684068e+04 -2.521740e+04 -2.462973e+05
-2.953857e+04 -2.615249e+04 -2.488492e+05
-1.695003e+04 -3.456647e+04 -2.490391e+05
-5.961047e+04 -2.213141e+04 -2.438453e+05
7.420233e+03 -5.255307e+04 -2.463244e+05
-1.079993e+04 -3.718531e+04 -2.489650e+05
1.495822e+04 -1.449321e+04 -2.510906e+05
1.539993e+04 -1.734304e+04 -2.508900e+05
2.825770e+04 -3.186891e+04 -2.483334e+05
2.781701e+04 -3.361868e+04 -2.481673e+05
2.895185e+04 -3.481219e+04 -2.478975e+05
2.928051e+04 -3.303862e+04 -2.480815e+05
3.093099e+04 -3.253610e+04 -2.479662e+05
3.037031e+04 -3.422003e+04 -2.477955e+05
3.825428e+04 -4.141124e+04 -2.455851e+05
3.662912e+04 -4.175228e+04 -2.457822e+05
3.317589e+04 -3.981035e+04 -2.465754e+05
3.456395e+04 -3.920769e+04 -2.464828e+05
3.350441e+04 -3.795594e+04 -2.468141e+05
3.518882e+04 -3.756156e+04 -2.466476e+05
4.209807e+04 -4.669660e+04 -2.440300e+05
4.068640e+04 -4.722709e+04 -2.441529e+05
4.171732e+04 -4.839214e+04 -2.437496e+05
4.003531e+04 -4.888664e+04 -2.439485e+05
8.988085e+03 -1.221757e+04 -2.515243e+05
3.907471e+04 -4.757969e+04 -2.443395e+05
1.349151e+04 -1.273577e+04 -2.512804e+05
1.152350e+04 -1.267725e+04 -2.513952e+05
4.116134e+04 -5.003754e+04 -2.435088e+05
4.284441e+04 -4.952638e+04 -2.433132e+05
4.322585e+04 -4.785960e+04 -2.435897e+05
2.634775e+04 -2.774326e+04 -2.490388e+05
2.492586e+04 -2.836640e+04 -2.491159e+05
2.601447e+04 -2.951791e+04 -2.488595e+05
2.440096e+04 -3.004637e+04 -2.489680e+05
1.571514e+04 -2.006298e+04 -2.506994e+05
1.739439e+04 -1.967583e+04 -2.506151e+05
1.756487e+04 -1.761657e+04 -2.507532e+05
1.631460e+04 -1.611846e+04 -2.509150e+05
1.429677e+04 -1.613873e+04 -2.510271e+05
1.306038e+04 -1.459487e+04 -2.511917e+05
1.251786e+04 -1.623235e+04 -2.511184e+05
1.358362e+04 -1.750922e+04 -2.509787e+05
2.213151e+04 -2.765632e+04 -2.494945e+05
2.271475e+04 -2.597819e+04 -2.496048e+05
2.407601e+04 -2.532543e+04 -2.495566e+05
2.381688e+04 -2.718451e+04 -2.493782e+05
3.921523e+04 -4.273258e+04 -2.451963e+05
3.763198e+04 -4.312466e+04 -2.453777e+05
3.874891e+04 -4.456942e+04 -2.449417e+05
1.145211e+04 -1.495547e+04 -2.512580e+05
3.211988e+04 -3.856081e+04 -2.469059e+05
3.412624e+04 -3.630385e+04 -2.469787e+05
3.106387e+04 -3.731127e+04 -2.472364e+05
3.246101e+04 -3.670257e+04 -2.471429e+05
3.140799e+04 -3.545491e+04 -2.474712e+05
5.589840e+04 -5.676971e+04 -2.390704e+05
5.378342e+04 -5.888983e+04 -2.390422e+05
5.380723e+04 -5.575881e+04 -2.397817e+05
5.183276e+04 -5.795033e+04 -2.396978e+05
3.423190e+04 -4.105990e+04 -2.462448e+05
3.000786e+04 -3.606173e+04 -2.475670e+05
3.621121e+04 -4.364156e+04 -2.455071e+05
2.704126e+04 -3.068424e+04 -2.486079e+05
5.062341e+04 -5.404188e+04 -2.408645e+05
4.985222e+04 -5.524630e+04 -2.407509e+05
5.206738e+04 -5.489310e+04 -2.403694e+05
5.002876e+04 -5.705076e+04 -2.402994e+05
3.716571e+04 -4.495427e+04 -2.451179e+05
4.509612e+04 -5.182840e+04 -2.424340e+05
4.453942e+04 -5.349023e+04 -2.421900e+05
4.622842e+04 -5.293333e+04 -2.419940e+05
4.791028e+04 -5.229810e+04 -2.418026e+05
4.747677e+04 -5.371475e+04 -2.415711e+05
5.817740e+04 -5.779827e+04 -2.382829e+05
5.605281e+04 -5.991611e+04 -2.382691e+05
-4.844380e+04 3.687166e+04 -2.445356e+05
-4.633777e+04 3.900463e+04 -2.446129e+05
-4.581169e+04 3.464403e+04 -2.453656e+05
-4.368860e+04 3.676275e+04 -2.454447e+05
2.863937e+04 -3.013968e+04 -2.485025e+05
1.464938e+04 -1.878610e+04 -2.508391e+05
3.625140e+04 -3.881927e+04 -2.463166e+05
3.561763e+04 -4.045977e+04 -2.461522e+05
1.785323e+04 -2.259629e+04 -2.503097e+05
1.844355e+04 -2.092360e+04 -2.504162e+05
1.977030e+04 -2.023363e+04 -2.503705e+05
1.951162e+04 -2.218741e+04 -2.502142e+05
4.436014e+04 -4.901642e+04 -2.431473e+05
3.306367e+04 -3.504614e+04 -2.473097e+05
4.017618e+04 -4.405392e+04 -2.448075e+05
1.629162e+04 -1.854579e+04 -2.507646e+05
-7.960906e+03 3.441620e+03 -2.518037e+05
-6.901974e+03 -3.631614e+02 -2.518799e+05
-5.383634e+03 2.076760e+03 -2.519005e+05
-1.088666e+04 4.991030e+03 -2.516938e+05
-1.130171e+04 1.967184e+03 -2.516971e+05
4.582768e+04 -5.443496e+04 -2.417339e+05
4.878107e+04 -5.455579e+04 -2.411217e+05
4.717601e+04 -5.530333e+04 -2.412716e+05
2.749356e+04 -2.894147e+04 -2.487707e+05
4.926685e+04 -5.316999e+04 -2.413335e+05
2.058154e+04 -2.345334e+04 -2.500115e+05
2.299958e+04 -2.405248e+04 -2.497601e+05
-1.666051e+04 9.083336e+03 -2.512394e+05
-1.614897e+04 4.983797e+03 -2.513964e+05
1.892280e+04 -2.386130e+04 -2.501059e+05
4.397044e+04 -5.067728e+04 -2.428736e+05
4.549443e+04 -5.017324e+04 -2.427050e+05
3.729334e+04 -4.008990e+04 -2.459738e+05
3.525671e+04 -4.232885e+04 -2.458963e+05
2.520194e+04 -2.654505e+04 -2.493070e+05
2.084673e+04 -2.150658e+04 -2.501671e+05
2.165067e+04 -2.471833e+04 -2.498077e+05
2.192316e+04 -2.277953e+04 -2.499636e+05
-2.194706e+04 1.379335e+04 -2.506223e+05
-1.950554e+04 1.122308e+04 -2.509871e+05
-2.180267e+04 9.237037e+03 -2.508832e+05
-2.671924e+04 1.904172e+04 -2.498421e+05
-3.118992e+04 1.973752e+04 -2.492434e+05
-2.893778e+04 1.704242e+04 -2.497371e+05
-1.897582e+04 7.110417e+03 -2.511398e+05
4.228737e+04 -5.118844e+04 -2.430692e+05
-3.598529e+04 2.966622e+04 -2.476348e+05
-1.381548e+04 6.943596e+03 -2.514916e+05
-2.434846e+04 1.640642e+04 -2.502462e+05
-2.658770e+04 1.441866e+04 -2.501422e+05
[...]
POINT_DATA 9769
VECTORS displacement double
0.11702075 0.00006988 0.01660587
0.10809530 -0.00288091 0.01711525
0.10117363 -0.00401029 0.01498013
0.10086165 -0.00627307 0.02080487
0.02173455 0.03479624 0.00870827
0.02674504 0.03510261 0.00731292
0.03889564 0.03771751 0.00550234
0.05265494 0.03254493 0.00880986
0.05225976 0.03681713 0.00638418
0.04655283 0.03822474 0.00839749
0.03967494 0.03852865 0.00815621
0.04690576 0.03559950 0.00760510
-0.07442089 0.08358072 0.00480438
-0.07103681 0.08070430 0.00110025
-0.06300874 0.07923735 -0.00454437
-0.06335341 0.07791637 -0.00437271
-0.06802790 0.08097117 -0.00334232
-0.07756850 0.08182849 0.00441567
-0.07275935 0.08383733 -0.00162556
-0.00561682 0.04823309 0.00052092
0.00062275 0.04583464 0.00263966
-0.01896172 0.04733486 0.00871833
0.00718675 0.04146786 -0.00050697
-0.01414916 0.04789120 0.00322383
-0.04443296 0.05970449 -0.00018853
-0.04588723 0.06614709 -0.00226806
-0.04125966 0.06283551 -0.00103289
0.01380061 0.03939214 0.00369080
0.01722325 0.03855398 0.00384521
0.02151959 0.03728065 0.00724124
0.01769112 0.04174460 0.00702642
0.01229197 0.04306326 0.00525823
0.07060706 0.03058937 0.01502198
0.07856858 0.02885291 0.01037760
0.06339588 0.03845991 0.00400147
0.05862908 0.03846760 0.00685560
0.05844501 0.03744998 0.01187792
-0.03617424 0.06024325 -0.00170922
-0.04211799 0.05814127 0.00226082
0.02387987 0.03939766 0.00802730
0.01993509 0.03523413 0.00647309
-0.05509395 0.07236445 -0.00357316
-0.06163996 0.07149120 -0.00269190
-0.05951139 0.07537952 -0.00350852
0.05287843 0.03853522 0.00946944
0.05783859 0.03776782 0.00551738
0.08209865 0.03073489 0.00437195
0.08294772 0.02380891 0.01209932
0.08656836 0.02729607 0.00525805
0.07629416 0.02584060 0.01704043
0.08094419 0.01979732 0.01874087
0.08940422 0.02170306 0.00564165
0.08694159 0.01737030 0.01274952
-0.02373959 0.05100206 -0.00145783
-0.03059661 0.05791488 -0.00033872
-0.05985815 0.07025003 0.00013646
0.12982674 -0.01483335 0.01276468
0.12040923 -0.02634197 0.02438668
0.11398894 -0.01734319 0.02362187
0.09896409 -0.11639753 -0.05991898
0.10100510 -0.12525799 -0.05079416
0.09970009 -0.11315965 -0.05518561
0.09987143 -0.11789801 -0.06077625
0.10782924 -0.01120073 0.02234628
0.12123874 -0.00814892 0.01552265
-0.02075364 0.04685125 0.00779163
0.04960756 0.03476422 0.00688284
-0.09178847 0.10100409 0.01508367
-0.07883518 0.08776378 -0.00127783
-0.02531153 0.05487283 0.00196760
0.13928084 -0.07532546 -0.00111129
0.13930086 -0.03942240 0.02761842
0.13452814 -0.03959599 0.03209368
0.13272715 -0.04330972 0.02646860
0.13819491 -0.04896098 0.02790944
0.13179507 -0.08532485 -0.01439576
0.11551204 -0.09567934 -0.04270189
0.13374487 -0.08173577 -0.03714455
0.12283456 -0.09974407 -0.03811003
0.15611991 -0.03510317 0.01883261
0.14168150 -0.05927621 0.02091402
0.14119530 -0.05243038 0.00984641
0.13741770 -0.06784021 0.01008118
-0.05806290 0.07086945 0.00094296
-0.05037480 0.06994325 -0.00385212
0.14710359 -0.03335178 0.02896725
0.00671923 0.04410767 0.00403190
0.01042190 0.04021272 0.00230049
0.10474157 -0.11438708 -0.05718793
0.10684224 -0.10390019 -0.05397930
0.11326524 -0.10817269 -0.05043613
0.12783481 -0.09134580 -0.02473803
0.12922128 -0.07955864 -0.02657176
0.06739949 0.03319899 0.00498064
0.07036557 0.03219784 0.00815864
0.06436167 0.03457170 0.01350305
0.12329250 -0.04117021 0.02259507
0.12504311 -0.00935680 0.01476826
0.11877359 -0.09433141 -0.04991796
0.11561401 -0.10482962 -0.04336288
-0.04725817 0.06148387 -0.00227187
-0.02019726 0.05075653 0.00346547
-0.02245001 0.04842333 0.00342911
0.08968264 0.00578816 0.02006802
0.08528119 0.01278369 0.01975581
0.09025877 0.00965583 0.01397585
0.06399499 0.03598110 0.00812117
0.09468448 -0.00151975 0.02063330
0.09450206 0.00296457 0.01388872
0.09726756 0.00168028 0.00759086
0.12583959 -0.07563286 -0.01419160
0.09493757 0.00636087 0.00730729
-0.02617446 0.05185533 -0.00450395
0.03176820 0.03845836 0.00753179
0.09222746 0.01391810 0.00623556
-0.07552831 0.08300069 0.00403010
0.14611746 -0.05950773 -0.00452273
0.11827449 -0.00346814 0.01582460
0.09080283 0.09625486 -0.01563894
0.09070029 0.09888643 -0.02442365
0.07158816 0.08714149 -0.06422544
0.07272697 0.08879586 -0.06751936
0.07205071 0.08777177 -0.06690248
0.07018633 0.08609160 -0.06551054
0.06758971 0.08214356 -0.06425883
0.06925555 0.08447239 -0.06546192
0.05961039 0.06689439 -0.07075089
0.06319730 0.07169189 -0.06954182
0.06851350 0.07507497 -0.07129819
0.06509697 0.07477643 -0.07005911
0.06612677 0.07675742 -0.06982724
0.06288612 0.07358533 -0.06910669
0.05325035 0.05500776 -0.08096244
0.05812161 0.05981277 -0.07853087
0.05442549 0.05827441 -0.08517742
0.05984026 0.06705261 -0.08351502
0.08899686 0.10303086 -0.03069044
0.06421302 0.06493762 -0.07536571
0.09103129 0.09788579 -0.01179596
0.09142616 0.10195173 -0.01687160
0.05532342 0.06808255 -0.09329889
0.05120545 0.05706002 -0.09090956
0.05014716 0.05229902 -0.08630663
0.07486790 0.08751443 -0.05499973
0.07689722 0.09193287 -0.05635862
0.07495280 0.09063221 -0.05945878
0.07728993 0.09597073 -0.06092890
0.09056345 0.10208261 -0.03257371
0.08948382 0.09801637 -0.02951973
0.08909060 0.09473043 -0.02315200
0.08994002 0.09539346 -0.01955244
0.09124356 0.09926755 -0.02208089
0.09269925 0.10034970 -0.01765199
0.09392355 0.10442387 -0.02486368
0.09161730 0.10209260 -0.02780892
0.08225659 0.09851486 -0.05223226
0.08153569 0.09376205 -0.04666572
0.07916735 0.08941327 -0.04621107
0.07916706 0.09272549 -0.05207324
0.05810660 0.06432098 -0.07305238
0.06187030 0.06977616 -0.07099993
0.06033782 0.06744871 -0.07556185
0.09399525 0.10412326 -0.02189478
0.07036831 0.07573781 -0.07086009
0.06399814 0.07570791 -0.06854078
0.06946584 0.08702074 -0.06791427
0.06713757 0.07898069 -0.06902433
0.06846537 0.08221246 -0.06580641
0.02843373 0.01402334 -0.09603491
0.03457061 0.01644782 -0.09526919
0.02815453 0.01991999 -0.10003998
0.03562682 0.01433005 -0.09972754
0.06698269 0.07500686 -0.07192770
0.07145488 0.08714582 -0.06519447
0.06532534 0.07625019 -0.07036993
0.07349061 0.08912612 -0.06251083
0.03166069 0.02808107 -0.10418621
0.03473436 0.02991948 -0.10460729
0.02897701 0.02308430 -0.10510107
0.03601442 0.03393774 -0.10747547
0.06299175 0.07740078 -0.07248885
0.04710845 0.04720816 -0.09515606
0.04940010 0.05313017 -0.09923401
0.04397235 0.04329328 -0.10055576
0.03828994 0.03584244 -0.10299206
0.03990533 0.03519344 -0.10688249
0.02926576 0.01186434 -0.08489121
0.04133353 -0.01256298 -0.07820962
-0.02009589 0.02066863 -0.08709342
-0.00062508 -0.02015511 -0.09739351
-0.00077905 -0.01929144 -0.09744233
0.00888039 -0.03433209 -0.10372490
0.07078554 0.08490873 -0.06123308
0.09109413 0.10207370 -0.03035014
0.06185530 0.07154881 -0.06930633
0.06426024 0.07346182 -0.06994755
0.08911232 0.10160169 -0.03828407
0.08853208 0.09760630 -0.03267024
0.08693319 0.09325690 -0.03021001
0.08699994 0.09681901 -0.03585657
0.04710692 0.04964777 -0.09161274
0.06533022 0.07805587 -0.06665374
0.05685613 0.06213737 -0.07570781
0.09023860 0.09878381 -0.02708335
0.06615810 -0.10980097 -0.04287718
0.06884891 -0.08944829 -0.08708257
0.06984022 -0.10722211 -0.04098136
0.06409891 -0.11056364 -0.05257162
0.06330002 -0.10831630 -0.07774265
0.04479796 0.05363028 -0.10866177
0.03628106 0.03291609 -0.10436071
0.04271937 0.03266182 -0.10610342
0.07283675 0.08619223 -0.05846759
0.03425866 0.03235438 -0.10395093
0.08547766 0.09611021 -0.03948955
0.08130726 0.09052784 -0.04171290
0.06072851 -0.11120371 -0.07772221
0.06191066 -0.11468323 -0.09635240
0.08824064 0.10139696 -0.04100145
0.04907247 0.05409071 -0.09626152
0.04498283 0.04630093 -0.09539537
0.06079076 0.06932538 -0.06968394
0.06642033 0.07526671 -0.07000554
0.07703912 0.08848842 -0.05092920
0.08519991 0.09243559 -0.03399127
0.08355462 0.09514111 -0.04222087
0.08330389 0.09158631 -0.03787873
0.05644073 -0.10764568 -0.10324615
0.05906727 -0.11011987 -0.09158647
0.05752167 -0.11519806 -0.11348865
0.04867670 -0.09846839 -0.11524639
0.03699206 -0.08818842 -0.12482177
0.04604913 -0.10370569 -0.12581115
0.05846804 -0.11496900 -0.09941835
0.05297566 0.07014586 -0.09552342
0.02842935 -0.06986432 -0.11412276
0.06201600 -0.11133326 -0.06606165
0.05267097 -0.10358649 -0.10954083
0.04871392 -0.10493506 -0.12163847
0.01652785 -0.04813827 -0.10931873
0.01979195 -0.06811619 -0.11338515
0.07932712 0.09708811 -0.05812626
0.07106799 -0.09397164 -0.07175427
0.04210307 0.04136601 -0.09728307
0.05632900 -0.11358665 -0.12419970
0.06272110 -0.11157692 -0.08630719
0.08632832 0.09945439 -0.04355964
0.08817162 0.09408945 -0.02670329
0.09002679 0.09961750 -0.01030318
0.07345076 -0.10096597 -0.04980328
0.01159059 -0.04676815 -0.10673021
0.04384370 -0.09384527 -0.11649562
0.03481591 -0.08901539 -0.12338137
0.02217441 -0.06184915 -0.10904319
0.02112921 -0.06940544 -0.11501068
0.03860647 -0.08786318 -0.11640810
0.03406760 -0.08083355 -0.11758219
0.07360341 -0.06060289 -0.10559562
0.07680990 -0.00303560 -0.11929199
0.05433821 0.05157170 -0.09312274
0.08827306 0.10071848 -0.01056458
0.08683106 0.10317725 -0.03276455
0.05559656 0.05814467 -0.07697414
0.06010138 0.06261653 -0.07463508
0.06536253 -0.10138433 -0.08004033
0.08973160 0.10185758 -0.03552170
0.07554437 0.09466449 -0.06344000
0.08483192 0.09934932 -0.04577434
0.06909190 0.08350666 -0.06309227
0.07457413 0.08983194 -0.06555638
0.03893495 0.03335182 -0.10592641
0.06574822 0.06310950 -0.07412876
0.06650816 0.08044311 -0.06516286
0.03138454 -0.08858365 -0.12172613
0.08762099 0.10192796 -0.00694676
0.08441646 0.10498458 -0.00579563
0.07689538 0.00014010 -0.10931458
0.09212338 0.10322980 -0.02384918
0.08627256 0.10305819 -0.04317160
0.08996299 0.10563502 -0.03322942
0.08102610 0.09068009 -0.06769251
0.07984408 0.10478740 -0.02246613
0.07741004 0.05799750 -0.09897800
-0.00428423 0.09523831 0.08237227
-0.00723350 0.10224248 0.08072620
-0.00300917 0.09114314 0.09342134
-0.00128141 0.08463081 0.09370023
-0.00189371 0.08959762 0.08160439
-0.00493532 0.09715398 0.08684641
-0.00926898 0.10611155 0.07544347
-0.00630473 0.09978111 0.07678912
-0.00800966 0.10277746 0.07221622
-0.00599604 0.09831755 0.07052215
-0.01226893 0.11131808 0.06882717
-0.01140288 0.10631692 0.05801254
-0.07396410 0.10551159 -0.03023953
-0.06847870 0.09788878 -0.02510703
-0.07695999 0.10436528 -0.02055643
-0.07819960 0.10207300 -0.03843708
-0.00013624 0.07884379 0.09952442
-0.00380807 0.09417275 0.07614158
-0.00851232 0.10223473 0.06448529
-0.01650835 0.11722577 0.06022570
0.07148727 -0.11880104 -0.04958620
0.05673663 -0.09899043 -0.06826429
0.00168589 0.07030628 0.10365199
0.00010015 0.07600821 0.10297355
-0.00206000 0.07674340 0.10811730
0.07037320 -0.12573210 -0.02736739
0.06988950 -0.13201423 -0.02846257
0.07209550 -0.12818577 -0.01512248
-0.00350121 0.07411401 0.11259175
-0.04939967 0.12807300 -0.00657237
-0.05078127 0.13438032 -0.00420015
-0.05491527 0.12486402 -0.01946615
-0.05681045 0.12604040 -0.01770807
-0.06528978 0.12824802 -0.02791923
0.00096340 0.07934918 0.09225905
0.00239524 0.06139402 0.10993722
0.00139964 0.07496205 0.09798681
-0.00231913 0.08522760 0.09953721
-0.01965107 0.11495708 0.04153767
-0.02052638 0.12239012 0.04812971
-0.01498365 0.11059293 0.05056405
0.06636658 -0.11707701 -0.05517778
0.07109524 -0.12513653 -0.04421878
-0.07510747 0.13111319 -0.03691079
-0.06409717 0.12422999 -0.02698282
0.06341270 -0.12890161 0.01070313
0.06785902 -0.13065777 -0.00997152
0.06319341 -0.13735908 0.01303400
0.03323807 -0.08146388 0.09474717
0.02079244 -0.08185842 0.12606662
0.02621773 -0.11243815 0.10189249
-0.00046949 0.07783369 0.10528026
-0.08236041 0.11821528 -0.05308755
-0.07822607 0.11998686 -0.04462567
0.04373579 -0.10270112 0.07243377
0.05145830 -0.12482385 0.06664784
0.05212153 -0.11548377 0.05460599
0.05002426 -0.13959843 0.04513255
-0.07768304 0.10942447 -0.04160000
-0.08103300 0.11471547 -0.05043660
-0.08397846 0.10589136 -0.05142963
0.00363932 0.04560334 0.11807422
-0.00263440 0.05012539 0.13216714
-0.00304618 0.06456364 0.12083422
0.00466637 -0.00898797 0.14780611
-0.07278532 0.12379857 -0.03918799
-0.09946670 0.11848794 -0.05828400
0.01444455 -0.04131130 0.13927368
-0.04174554 0.12732942 0.00468781
-0.04323008 0.13262968 0.00537226
0.05677309 -0.12515978 0.03295478
-0.00245168 0.09000322 0.08818796
0.00696230 0.02134771 0.12460098
0.01807051 -0.03332550 0.12021069
-0.03646896 0.13532295 0.02014180
-0.00030289 0.08460978 0.08701478
0.01142015 -0.00695997 0.12563137
0.02478674 -0.05959620 0.11084440
-0.02823222 0.12957981 0.03438035
0.00042351 0.02419724 0.14353261
-0.02629256 0.12054759 0.03029417
-0.03400023 0.12553949 0.01740049
-0.14150373 0.16388010 0.11180105
-0.13558827 0.15510171 0.11272073
-0.13627299 0.15572525 0.12064889
0.05209439 -0.13467333 0.11885078
0.01556948 -0.10683587 0.15226535
0.01642128 -0.08718380 0.13961947
0.02798068 -0.10123782 0.12937269
-0.12717261 0.15548649 0.04742356
-0.12327758 0.15005998 0.04458334
-0.11790675 0.14476776 0.04087571
0.05580524 -0.14549868 0.11380853
0.05686253 -0.12525809 0.10385063
0.06723734 -0.13651296 0.09121752
-0.12127107 0.12836632 0.14062051
-0.12256133 0.12709671 0.15100222
-0.12975553 0.13812427 0.15402567
-0.13923209 0.16497406 0.08268258
-0.13940530 0.16450523 0.08184591
-0.13647871 0.16217342 0.08199068
-0.13899138 0.16715699 0.08926299
0.01072279 -0.09419589 0.15740442
-0.08597122 0.05048571 0.19832240
-0.07945720 0.04756131 0.17520181
-0.09759266 0.07549900 0.19341926
-0.09036832 0.06857788 0.17140086
0.08239615 -0.15480500 0.08149855
0.07633620 -0.14081069 0.08228513
0.08462254 -0.14592797 0.07219298
-0.13390495 0.16051254 0.05602121
-0.13835812 0.16122357 0.05169583
-0.13857422 0.16611941 0.05971776
-0.13529054 0.16296592 0.06131761
-0.14603133 0.17035185 0.10310221
-0.13905941 0.16122666 0.10420053
-0.13439425 0.15526867 0.10360552
0.11289956 -0.15386262 0.02231222
0.11280414 -0.15013391 0.01705290
0.08648969 -0.16337815 0.07534949
0.09253122 -0.15260777 0.06031674
0.11292663 -0.14452846 0.01102374
0.10803331 -0.13551615 0.01027740
-0.13014292 0.14506796 0.12921084
-0.12926362 0.14447471 0.13543751
-0.12912008 0.14477716 0.11991205
-0.13217079 0.14899877 0.12117355
-0.13221495 0.14958431 0.12701908
-0.11608910 0.11305746 0.16977535
-0.11102633 0.10300120 0.17480297
-0.11123657 0.10538120 0.16506543
-0.10583250 0.09830636 0.16113272
-0.11179729 0.10857592 0.15448853
-0.12669002 0.13613656 0.14391124
-0.13433278 0.14580010 0.14707879
0.04588456 -0.12591832 0.12481615
0.04739642 -0.11739041 0.11329195
-0.12661286 0.14600270 0.03496014
-0.12468630 0.14853989 0.04086755
-0.13105398 0.15730734 0.04422214
-0.14308076 0.16787770 0.07704253
-0.14087566 0.16580407 0.07438906
-0.13736940 0.16319063 0.07460955
0.11153465 -0.14034458 0.00716157
0.09691512 -0.12013920 -0.00525193
-0.12723519 0.14420065 0.03495847
-0.07423294 0.02691626 0.19871749
0.10676276 -0.16355958 0.04106722
0.10914040 -0.15557383 0.03279510
0.11575275 -0.15400345 0.01985821
0.11203126 -0.15367890 0.02506938
-0.13175310 0.14979401 0.11182229
-0.14660075 0.17144975 0.06966749
-0.14044122 0.16645568 0.06737381
-0.14075085 0.16172958 0.04808605
-0.13668346 0.16187220 0.05452635
0.00523359 -0.08438482 0.16283108
-0.14259259 0.16165427 0.04492116
0.07613520 -0.14758922 0.08838158
-0.10635445 0.09769501 0.17102034
-0.11706568 0.11922797 0.14763671
-0.00162514 -0.07179717 0.16979863
-0.00366608 -0.06450654 0.15323505
-0.12690628 0.14113276 0.12730579
-0.05353946 0.00516736 0.19925074
-0.04129562 -0.01346614 0.17187828
-0.04505613 -0.01485945 0.19563046
-0.05349731 0.00656157 0.17430855
-0.10580440 0.09328114 0.18708741
0.09880491 -0.15302264 0.05142772
-0.13485381 0.16036322 0.04936827
-0.13153766 0.15880019 0.05120461
-0.14121456 0.16545574 0.09678602
-0.14965164 0.17405434 0.09730506
-0.13694295 0.16361016 0.06767019
-0.09891890 0.08527598 0.16638849
-0.12733141 0.14381846 0.13134431
0.00648936 -0.07663592 0.14705341
-0.13601366 0.15944362 0.09589751
-0.13621775 0.16173009 0.08905296
-0.14936408 0.17369628 0.06553215
0.09917207 -0.15717139 0.05398935
0.10370905 -0.16034967 0.04722595
-0.02503670 -0.05423946 0.18287004
-0.01855933 -0.04910123 0.16128956
-0.06841025 0.02715585 0.17603607
-0.10003710 0.12162998 0.02800343
-0.03473892 -0.03592801 0.18987631
-0.02951108 -0.03220555 0.16733797
0.10412802 -0.15401606 0.04284021
-0.11070846 0.13281629 0.04110313
0.03825735 -0.10921948 0.12178100
0.03919916 -0.11671380 0.13113735
-0.12283360 0.12562647 0.16271191
-0.11705652 0.11603617 0.15803379
-0.12432900 0.13638435 0.13330453
0.06115735 -0.04004626 -0.03267364
0.05943033 -0.03880961 -0.03331066
0.05834934 -0.03804746 -0.03314035
0.03024946 -0.01789196 -0.03975410
0.03716642 -0.02296251 -0.03848335
0.04349920 -0.02743627 -0.03703259
0.03303025 -0.01977397 -0.03957183
0.02660977 -0.01502841 -0.04067068
-0.05778424 0.04731017 -0.03780117
-0.06965489 0.05520405 -0.03457193
-0.09240724 0.06371868 0.01953012
-0.09195139 0.06317110 0.01890669
-0.09007488 0.06221784 0.02122286
-0.05316702 0.04463685 -0.03912928
-0.04505699 0.03869920 -0.04050812
-0.07779171 0.06120740 -0.03202601
-0.08052290 0.06270396 -0.03090007
0.01371996 -0.00485190 -0.04230236
0.01009130 -0.00210294 -0.04219170
0.03926759 -0.02447367 -0.03840560
0.01650150 -0.00721416 -0.04148065
0.00778241 -0.00005804 -0.04284552
0.00345517 0.00317830 -0.04277471
-0.11566111 0.08510489 0.00558607
-0.11339684 0.08226944 0.00995436
0.05473572 -0.03550970 -0.03476604
0.05481189 -0.03553187 -0.03428412
0.05230799 -0.03373152 -0.03500934
-0.11315346 0.08754496 -0.01082411
-0.11335794 0.08675732 -0.00945266
-0.11682863 0.08925176 -0.00181743
-0.11667278 0.08791548 -0.00119346
-0.11211867 0.08067025 0.00959344
-0.10872893 0.07749132 0.01221824
-0.10739495 0.07589691 0.01171933
0.05102750 -0.03287858 -0.03566306
0.00011292 0.00604576 -0.04335814
0.02328915 -0.01258275 -0.04065058
-0.09019115 0.06254503 0.02194976
-0.08813647 0.06146543 0.02406123
-0.08821007 0.06129862 0.02323133
-0.09922551 0.06880694 0.01555620
-0.10372303 0.07259688 0.01385382
-0.10238214 0.07132216 0.01351414
-0.09544923 0.06579888 0.01715787
-0.09819836 0.06785758 0.01507280
-0.10562052 0.08250417 -0.01779719
-0.10657583 0.08243028 -0.01692823
0.05736958 -0.03740053 -0.03401160
0.05678188 -0.03694479 -0.03366319
-0.09432924 0.06467629 0.01663704
-0.08851391 0.06906125 -0.02797680
-0.09046105 0.06992257 -0.02679018
-0.09775814 0.07631127 -0.02327475
-0.09912457 0.07659604 -0.02220379
-0.01074668 0.01439228 -0.04353061
-0.00490072 0.00964040 -0.04318073
-0.01671993 0.01847267 -0.04320088
0.04560744 -0.02905227 -0.03704290
0.02006051 -0.00991892 -0.04147560
-0.03937164 0.03519069 -0.04163236
-0.03108609 0.02874306 -0.04224629
-0.06588103 0.05313770 -0.03589962
0.04872817 -0.03113255 -0.03580856
-0.02463202 0.02463133 -0.04307905
-0.11674101 0.08667087 0.00561350
0.09138332 -0.06157572 -0.02137716
0.09293573 -0.06281718 -0.01962522
0.08955013 -0.06011044 -0.02155054
0.05915920 -0.03856259 -0.03266000
0.06161201 -0.04030918 -0.03238470
0.03950144 -0.02844838 0.01363595
0.04006191 -0.02888936 0.01376390
0.04391978 -0.03145733 0.01277193
0.04299212 -0.03071941 0.01278206
0.04625890 -0.03292869 0.01187777
0.06524438 -0.04283451 -0.03149928
0.06687251 -0.04388015 -0.03081204
0.06976112 -0.04599096 -0.03027196
0.04748336 -0.03383197 0.01179786
0.05801451 -0.04053676 0.00784314
0.05962510 -0.04167163 0.00753130
0.06234878 -0.04334456 0.00602425
0.08153471 -0.05631933 -0.00064144
0.08285326 -0.05746845 -0.00057816
0.07808015 -0.05400666 0.00065663
0.08590895 -0.05968159 -0.00179612
0.06269555 -0.04099123 -0.03188403
0.09633654 -0.06567177 -0.01772801
0.09447106 -0.06408041 -0.01963725
0.09774242 -0.06681945 -0.01778709
0.00935452 -0.00745977 0.01838666
0.00858358 -0.00699906 0.01860964
-0.00343714 0.00169006 0.01910197
0.08608164 -0.05744089 -0.02342223
0.08801360 -0.05900410 -0.02307489
0.03507877 -0.02542036 0.01473266
0.03545725 -0.02574372 0.01480670
0.10112155 -0.07162590 -0.00694997
0.07667353 -0.05285818 0.00063953
0.07176159 -0.04937448 0.00205719
0.07288618 -0.05028673 0.00219185
0.05534754 -0.03889912 0.00922770
0.05376569 -0.03775863 0.00948657