# vtk DataFile Version 2.0
Simplicial Mesh Example
ASCII
DATASET UNSTRUCTURED_GRID
POINTS 8937 double
-1.887288e+05 -1.140747e+05 1.219525e+05
-1.845412e+05 -1.124097e+05 1.296635e+05
-1.891969e+05 -1.114813e+05 1.236141e+05
-1.936578e+05 -1.130096e+05 1.150196e+05
-2.288144e+05 -9.781324e+04 -3.975601e+04
-2.289265e+05 -9.562056e+04 -4.419704e+04
-2.307623e+05 -9.519619e+04 -3.450305e+04
-2.302583e+05 -9.796976e+04 -2.978319e+04
-2.237774e+05 -1.090155e+05 3.928471e+04
-2.263734e+05 -9.906501e+04 -4.944917e+04
-2.261649e+05 -9.741792e+04 -5.350896e+04
-2.000827e+05 -1.149402e+05 -1.012900e+05
-1.998927e+05 -1.127111e+05 -1.041302e+05
-1.952789e+05 -1.150509e+05 -1.101519e+05
-1.932785e+05 -1.155813e+05 1.130858e+05
-1.979996e+05 -1.141075e+05 1.062056e+05
-2.140411e+05 -1.146925e+05 6.735027e+04
-2.177541e+05 -1.111044e+05 6.117971e+04
-2.230653e+05 -1.015185e+05 -5.865018e+04
-2.226809e+05 -1.001517e+05 -6.234451e+04
-2.308632e+05 -1.005491e+05 -9.801127e+03
-1.819353e+05 -1.084358e+05 1.365475e+05
-1.785184e+05 -1.097285e+05 1.399815e+05
-1.764303e+05 -1.087539e+05 1.433490e+05
-1.793262e+05 -1.072413e+05 1.408739e+05
-1.773137e+05 -1.063003e+05 1.440975e+05
-2.294523e+05 -1.037028e+05 1.006828e+04
-2.300348e+05 -1.018991e+05 1.430305e+04
-1.861241e+05 -1.119142e+05 -1.278164e+05
-1.906933e+05 -1.112275e+05 -1.215258e+05
-1.862689e+05 -1.090216e+05 -1.300853e+05
-2.320091e+05 -9.723020e+04 -1.490185e+04
-2.317831e+05 -9.876309e+04 -5.143394e+03
-2.303839e+05 -1.021138e+05 1.511048e+02
-2.317269e+05 -9.590041e+04 -2.469355e+04
-2.308733e+05 -9.904767e+04 -1.977616e+04
-1.976750e+05 -1.166134e+05 1.040669e+05
-2.022108e+05 -1.146800e+05 9.727935e+04
-2.311288e+05 -1.003109e+05 4.605824e+03
-2.280505e+05 -1.053574e+05 1.991899e+04
-2.186626e+05 -1.033364e+05 -7.079720e+04
-2.142469e+05 -1.065655e+05 -7.903216e+04
-2.099710e+05 -1.110319e+05 -8.419081e+04
-2.095488e+05 -1.094704e+05 -8.723256e+04
-2.147133e+05 -1.079343e+05 -7.584458e+04
-2.191221e+05 -1.046294e+05 -6.739565e+04
-2.176477e+05 -1.129559e+05 5.808991e+04
-2.210490e+05 -1.092356e+05 5.204721e+04
-2.261629e+05 -1.071170e+05 2.966994e+04
-2.101696e+05 -1.160641e+05 7.656279e+04
-2.141540e+05 -1.127292e+05 7.024371e+04
-2.019446e+05 -1.170837e+05 9.494104e+04
-1.727410e+05 -1.015164e+05 -1.528365e+05
-1.775112e+05 -1.025272e+05 -1.465672e+05
-1.677508e+05 -9.769741e+04 -1.606825e+05
-1.680199e+05 -9.487947e+04 -1.620839e+05
-1.730459e+05 -9.853601e+04 -1.544337e+05
-2.050322e+05 -1.135188e+05 -9.262433e+04
-1.492634e+05 -1.000411e+05 -1.766811e+05
-1.525565e+05 -9.868447e+04 -1.746193e+05
-1.498592e+05 -9.755086e+04 -1.775671e+05
-1.620494e+05 -9.622485e+04 -1.672865e+05
-1.530681e+05 -9.621477e+04 -1.755473e+05
-1.571731e+05 -9.472374e+04 -1.727079e+05
-1.567883e+05 -9.718321e+04 -1.716883e+05
-1.623097e+05 -9.367581e+04 -1.684767e+05
-1.772447e+05 -1.055256e+05 -1.447504e+05
-1.906373e+05 -1.139796e+05 -1.190382e+05
-1.473598e+05 -9.861778e+04 -1.790632e+05
-2.209161e+05 -1.110120e+05 4.874876e+04
-1.818952e+05 -1.060708e+05 -1.384454e+05
-1.816821e+05 -1.090408e+05 -1.364028e+05
-1.952227e+05 -1.125168e+05 -1.128365e+05
-2.103159e+05 -1.139617e+05 7.927137e+04
-2.063145e+05 -1.146473e+05 8.828541e+04
-2.061118e+05 -1.169079e+05 8.575811e+04
-1.811765e+05 -1.109420e+05 1.355395e+05
-2.047036e+05 -1.116596e+05 -9.556454e+04
-2.284853e+05 -1.035668e+05 2.392426e+04
-1.756795e+05 -1.055283e+05 1.466441e+05
-2.239750e+05 -1.072682e+05 4.281034e+04
-1.851579e+05 -1.098507e+05 1.309709e+05
-1.747979e+05 -1.079837e+05 1.459082e+05
-1.466678e+05 -1.011405e+05 -1.782222e+05
-2.264673e+05 -1.053495e+05 3.343725e+04
2.414403e+05 -7.215653e+04 2.005672e+03
2.411864e+05 -7.204854e+04 1.192233e+04
2.438820e+05 -6.306718e+04 6.934434e+03
-1.864231e+05 4.314375e+04 1.639788e+05
-1.808560e+05 5.191504e+04 1.676304e+05
-1.928977e+05 4.384311e+04 1.561161e+05
-1.980853e+05 4.562256e+04 1.489456e+05
-9.303316e+04 -2.240282e+05 -6.826571e+04
-1.874467e+05 5.266319e+04 1.599823e+05
-9.136348e+04 1.846555e+04 -2.341276e+05
-8.272440e+04 8.751891e+03 -2.378741e+05
-8.153605e+04 1.959524e+04 -2.376382e+05
-1.607839e+04 -1.003407e+05 2.306019e+05
-6.562188e+03 -9.565442e+04 2.330476e+05
-6.730395e+03 -1.054640e+05 2.287707e+05
-1.790375e+05 4.367104e+04 1.718790e+05
-1.155395e+05 -2.025394e+05 -9.556369e+04
-1.062814e+05 -2.047100e+05 -1.014992e+05
-1.392367e+05 -8.000066e+04 -1.942087e+05
7.920556e+04 1.881168e+05 1.477922e+05
6.824287e+04 1.910080e+05 1.495422e+05
7.372926e+04 1.956646e+05 1.406533e+05
8.275639e+04 1.933034e+05 1.388855e+05
2.414084e+05 -3.187223e+04 -6.488558e+04
2.436079e+05 -3.280743e+04 -5.552343e+04
2.385964e+05 -4.068018e+04 -7.014901e+04
8.835174e+04 -2.138650e+05 9.979839e+04
2.448631e+05 -1.350779e+04 5.799640e+04
2.231636e+05 1.164469e+05 1.192228e+04
2.181306e+05 1.255197e+05 1.295546e+04
-5.219625e+04 1.545037e+05 -1.921150e+05
-5.719716e+04 1.593392e+05 -1.866641e+05
-5.790772e+04 1.520634e+05 -1.924251e+05
4.614643e+04 -1.962561e+04 -2.469602e+05
4.661986e+04 -8.664190e+03 -2.474985e+05
-2.371157e+05 8.115433e+04 2.634599e+04
-2.387456e+05 7.906883e+04 1.589504e+04
-2.350246e+05 8.904360e+04 1.840258e+04
-2.364189e+05 8.681965e+04 8.510929e+03
-1.755446e+05 7.038543e+04 1.665353e+05
-1.685437e+05 1.683194e+05 8.225311e+04
-1.606632e+05 1.760679e+05 8.180112e+04
-4.745937e+03 -1.569295e+05 -1.971157e+05
-1.239776e+04 -1.614768e+05 -1.930687e+05
-3.518521e+04 -1.382343e+05 -2.077433e+05
-3.232782e+04 -1.291140e+05 -2.139824e+05
1.118821e+05 -2.227495e+05 3.700091e+04
1.032478e+05 -2.275253e+05 3.280460e+04
1.131660e+05 -2.198929e+05 4.842077e+04
1.045259e+05 -2.249306e+05 4.454835e+04
2.106309e+05 -5.905369e+04 1.251051e+05
2.053703e+05 -6.697718e+04 1.297733e+05
2.099441e+05 -6.892238e+04 1.211495e+05
2.044767e+05 -7.677712e+04 1.256923e+05
-3.972574e+03 2.349713e+05 9.097645e+04
-1.527407e+03 2.310927e+05 1.004879e+05
-1.103841e+04 2.315808e+05 9.875457e+04
2.026301e+05 8.361117e+04 -1.243149e+05
1.883519e+05 -1.503591e+05 -7.361866e+04
1.901775e+05 -1.520086e+05 -6.503773e+04
-2.473893e+04 2.405111e+05 -7.103788e+04
1.822922e+04 -2.348722e+05 -8.948043e+04
2.739139e+04 -2.342920e+05 -8.866214e+04
9.822569e+04 2.932543e+04 2.302080e+05
2.291914e+05 7.610951e+04 -7.199053e+04
-2.630427e+04 2.384220e+05 7.724645e+04
-3.279832e+04 2.346940e+05 8.571466e+04
2.403477e+05 7.129426e+04 -2.557593e+04
2.378402e+05 8.058918e+04 -2.101003e+04
2.369312e+05 8.097853e+04 -2.846224e+04
2.159068e+05 1.056066e+05 7.573319e+04
-9.340347e+03 2.272753e+05 1.084560e+05
-1.973649e+04 2.282279e+05 1.050071e+05
-1.793661e+05 -1.169136e+05 1.329022e+05
1.223590e+05 1.702881e+05 -1.397650e+05
1.128535e+05 1.778404e+05 -1.383506e+05
1.293817e+05 1.722870e+05 -1.306964e+05
1.208958e+05 1.779586e+05 -1.312209e+05
-4.061213e+04 2.308740e+05 9.247625e+04
6.995742e+04 -1.206220e+05 2.099054e+05
1.181377e+05 2.051919e+05 8.627731e+04
-7.607099e+04 -1.528924e+05 -1.853135e+05
2.457846e+05 -2.378558e+04 -5.028121e+04
1.166028e+04 -5.556631e+04 2.455207e+05
1.119749e+04 -4.524070e+04 2.476528e+05
2.067691e+04 -4.948695e+04 2.462265e+05
2.104031e+04 -5.979046e+04 2.438984e+05
-7.669779e+03 -1.753919e+05 -1.807840e+05
2.204615e+05 9.596684e+04 7.543940e+04
2.175836e+05 9.716900e+04 8.197306e+04
-8.326397e+04 2.221654e+05 -8.493317e+04
-8.184060e+04 2.262328e+05 -7.499898e+04
1.292535e+05 -7.533721e+04 2.027852e+05
8.758936e+04 1.009912e+05 -2.136185e+05
-1.349651e+05 -2.080499e+05 4.476246e+04
-1.283880e+05 -2.101313e+05 5.352900e+04
-9.827706e+04 4.456866e+04 -2.277263e+05
-9.618318e+04 3.466963e+04 -2.303276e+05
-8.972508e+04 3.913142e+04 -2.322114e+05
9.020502e+04 9.141059e+04 -2.168206e+05
9.853605e+04 9.474835e+04 -2.117012e+05
1.212840e+05 -1.585441e+05 -1.538114e+05
1.182443e+05 -1.713463e+05 -1.419956e+05
1.244510e+05 -1.635334e+05 -1.458519e+05
1.088747e+05 -1.741102e+05 -1.460682e+05
1.303319e+05 1.127444e+05 -1.838649e+05
2.007292e+05 -1.162625e+05 9.846236e+04
1.151660e+05 -1.664916e+05 -1.500711e+05
1.878288e+05 -1.002465e+05 -1.348146e+05
1.925888e+05 -1.022708e+05 -1.263101e+05
5.917015e+04 2.427668e+05 -3.266772e+04
2.299626e+05 9.962138e+04 -2.639677e+04
1.104421e+05 -1.456367e+05 1.734834e+05
1.072314e+05 -1.366185e+05 1.825947e+05
5.205395e+04 2.453222e+05 -2.472690e+04
2.293868e+05 -6.703032e+04 7.995400e+04
2.304634e+05 -5.736055e+04 8.426390e+04
2.023960e+05 -1.267302e+05 -8.049407e+04
2.148463e+05 6.496952e+04 1.145601e+05
2.104966e+05 6.683036e+04 1.213626e+05
1.982924e+05 8.915823e+04 1.274163e+05
1.936152e+05 9.853388e+04 1.277037e+05
-2.444596e+05 2.148977e+04 5.728621e+04
-2.421238e+05 3.395709e+04 6.104894e+04
-2.416442e+05 2.529726e+04 6.687393e+04
2.498904e+05 1.339798e+04 -2.965292e+04
-2.172378e+05 -1.277174e+05 -1.129334e+02
-2.430955e+05 -5.975673e+04 2.894288e+04
-2.456882e+05 -4.993431e+04 2.545381e+04
-2.439051e+05 -5.196217e+04 3.625209e+04
-7.785888e+04 2.334886e+05 -5.408381e+04
-7.553163e+04 2.364119e+05 -4.368488e+04
-8.653031e+04 2.318999e+05 -4.731762e+04
1.371897e+05 -5.834541e+04 2.031718e+05
1.369905e+05 -6.844609e+04 2.001318e+05
1.295849e+05 -6.530045e+04 2.060282e+05
-1.143082e+05 2.128603e+05 -7.161091e+04
-2.482279e+05 -2.422395e+04 3.605717e+04
-2.496032e+05 -1.427387e+04 3.159894e+04
-1.235943e+05 7.692460e+04 2.056965e+05
8.862032e+04 -2.227902e+05 7.755620e+04
8.855322e+04 -2.257094e+05 6.868458e+04
7.019679e+04 -2.370778e+05 -4.868826e+04
6.620880e+04 -2.356097e+05 -6.007055e+04
6.032386e+04 -2.390234e+05 -5.227642e+04
-1.492564e+05 -1.523807e+05 -1.341889e+05
-1.470119e+05 -1.603625e+05 -1.271825e+05
-5.229201e+04 2.439934e+05 -3.516750e+04
-4.778586e+04 2.461731e+05 -2.488561e+04
-6.116381e+04 2.426589e+05 -2.965886e+04
3.008702e+04 2.225688e+05 -1.142887e+05
2.328901e+04 2.261149e+05 -1.087827e+05
-9.096124e+04 2.002395e+05 1.230211e+05
-8.867237e+04 2.065077e+05 1.139991e+05
-8.262203e+04 2.040073e+05 1.227136e+05
1.662017e+05 -1.715235e+05 -8.037841e+04
1.797777e+05 4.290969e+03 1.765377e+05
[...]
POINT_DATA 8937
VECTORS displacement double
0.303186 0.199641 -0.219930
0.269929 0.206636 -0.215883
0.306834 0.203606 -0.216002
0.343010 0.194940 -0.219967
0.670480 -0.073349 -0.209606
0.672651 -0.083136 -0.205868
0.688643 -0.063739 -0.204397
0.682779 -0.053125 -0.209226
0.612185 0.085579 -0.223846
0.648926 -0.091829 -0.212440
0.647984 -0.100566 -0.209684
0.423002 -0.164316 -0.240670
0.422765 -0.170345 -0.237453
0.385401 -0.174401 -0.240638
0.340018 0.190630 -0.223922
0.379129 0.185103 -0.223159
0.520312 0.132363 -0.229753
0.554463 0.123828 -0.224929
0.619457 -0.108120 -0.217368
0.616660 -0.115714 -0.215180
0.685652 -0.011620 -0.212739
0.249663 0.215030 -0.208822
0.223755 0.214805 -0.209619
0.208097 0.217074 -0.207484
0.229801 0.218300 -0.206127
0.214627 0.220485 -0.204088
0.669252 0.029086 -0.217049
0.674268 0.037559 -0.213575
0.317994 -0.195173 -0.235851
0.352422 -0.190919 -0.235048
0.320670 -0.201072 -0.231656
0.697585 -0.022715 -0.207059
0.694007 -0.002258 -0.209330
0.679578 0.008963 -0.214948
0.696283 -0.043326 -0.205166
0.687270 -0.032421 -0.210664
0.376491 0.180582 -0.227022
0.414844 0.174604 -0.225506
0.686332 0.017969 -0.211445
0.654768 0.048441 -0.219248
0.580761 -0.128765 -0.221210
0.542123 -0.140123 -0.227129
0.504513 -0.144523 -0.234712
0.501930 -0.150427 -0.232390
0.545460 -0.133765 -0.229353
0.584175 -0.121855 -0.223272
0.553622 0.117833 -0.228272
0.585683 0.108771 -0.222979
0.635787 0.067608 -0.221492
0.485130 0.145676 -0.230642
0.521080 0.137850 -0.226394
0.412831 0.169861 -0.229283
0.228613 -0.224650 -0.219861
0.261109 -0.221089 -0.221474
0.197432 -0.232660 -0.213598
0.201053 -0.237893 -0.209270
0.232690 -0.230303 -0.215323
0.463437 -0.154626 -0.238673
0.076853 -0.221081 -0.215114
0.098281 -0.225847 -0.213751
0.082535 -0.226206 -0.211835
0.160556 -0.234508 -0.211263
0.103407 -0.230801 -0.210345
0.130323 -0.235639 -0.208677
0.126062 -0.230872 -0.212257
0.164053 -0.239388 -0.207447
0.257449 -0.215286 -0.225893
0.350641 -0.184828 -0.239000
0.066388 -0.222336 -0.212930
0.584576 0.102418 -0.226128
0.290420 -0.211224 -0.226973
0.287160 -0.205386 -0.231350
0.386428 -0.180556 -0.237041
0.486276 0.150911 -0.227125
0.450726 0.163167 -0.226799
0.449163 0.158248 -0.230458
0.243897 0.211503 -0.212402
0.461607 -0.160446 -0.235827
0.658530 0.056751 -0.215897
0.202473 0.222119 -0.202432
0.613544 0.092602 -0.220546
0.274639 0.210411 -0.212135
0.195954 0.218698 -0.205804
0.060107 -0.216991 -0.216099
0.638124 0.075263 -0.218054
0.792658 -0.006193 0.169913
0.788515 0.015959 0.168904
0.817481 0.004036 0.150071
0.282276 0.285036 0.113475
0.238670 0.278001 0.132434
0.333964 0.281185 0.115260
0.376717 0.275336 0.119043
-0.272158 0.006999 -0.204050
0.289796 0.275507 0.134126
-0.174256 -0.273922 0.064551
-0.204728 -0.269189 0.037316
-0.218281 -0.256181 0.072676
-0.441780 0.023298 -0.039626
-0.446523 0.018555 -0.019541
-0.446515 0.018680 -0.019731
0.224911 0.285570 0.114834
-0.168601 -0.024554 -0.242506
-0.214795 -0.017796 -0.228633
0.034464 -0.250234 -0.185106
-0.319985 0.033885 -0.168563
-0.354262 0.023825 -0.147292
-0.337803 0.026386 -0.158962
-0.307850 0.034025 -0.175939
0.810106 -0.169626 0.085083
0.830078 -0.148000 0.086140
0.781937 -0.178526 0.106582
-0.285959 0.049676 0.192265
0.823608 0.120542 0.031785
0.611911 0.004951 -0.246847
0.564183 0.006232 -0.260458
-0.456580 0.020367 0.124272
-0.440636 0.012898 0.135062
-0.438817 0.010660 0.137132
-0.441160 -0.147259 0.131761
-0.452009 -0.152918 0.103318
0.739590 0.058785 0.193538
0.756965 0.036715 0.189665
0.718894 0.041175 0.209037
0.733549 0.020513 0.204815
0.198359 0.258449 0.168523
0.144607 0.095561 0.293237
0.089389 0.086552 0.291727
-0.531452 0.081505 -0.006802
-0.521330 0.075091 -0.028382
-0.483300 0.052371 -0.091276
-0.489893 0.056843 -0.085410
-0.189321 0.036491 0.241060
-0.229053 0.033612 0.227363
-0.182480 0.041835 0.241482
-0.222519 0.038014 0.228315
0.489352 0.232886 0.129703
0.443339 0.233630 0.145450
0.483570 0.222410 0.150225
0.435315 0.222476 0.164890
-0.456838 -0.000455 0.015019
-0.456626 -0.001338 0.009721
-0.453886 0.000104 0.032600
0.467327 -0.259006 -0.190448
0.305257 -0.098856 0.298102
0.319550 -0.087427 0.299591
-0.463513 0.017143 0.058854
-0.467687 0.039622 0.051688
-0.459134 0.037620 0.074153
-0.244449 0.192092 -0.074378
0.691562 -0.176537 -0.173534
-0.443707 0.003615 0.067941
-0.435172 0.004782 0.083763
0.789828 -0.078224 -0.162620
0.762686 -0.066507 -0.182181
0.755138 -0.082972 -0.182980
0.538879 0.123343 -0.225827
-0.454317 -0.000981 0.029305
-0.448285 0.000967 0.053300
0.230236 0.202842 -0.220469
-0.140919 -0.094962 -0.256683
-0.195308 -0.074638 -0.246781
-0.100368 -0.099117 -0.264788
-0.150736 -0.083294 -0.256662
-0.422706 0.006869 0.102053
-0.344171 0.080650 0.133033
-0.157919 0.039936 -0.241023
-0.344407 -0.021347 -0.178355
0.851798 -0.138004 0.064297
-0.444359 0.019614 0.017863
-0.444798 0.019366 0.015535
-0.438251 0.029640 0.032965
-0.437971 0.028319 0.035949
-0.517225 0.070492 -0.015086
0.581124 0.128582 -0.209667
0.554175 0.138567 -0.211342
-0.327862 -0.003760 0.191396
-0.331384 -0.001512 0.189029
-0.095510 0.213510 0.141815
-0.279597 -0.127320 -0.195907
-0.062961 0.053321 -0.262778
-0.100191 0.055982 -0.253778
-0.171590 -0.239830 0.126335
-0.169699 -0.255247 0.105420
-0.204563 -0.233953 0.117331
-0.252534 -0.156478 -0.191905
-0.214109 -0.172412 -0.198035
-0.160721 -0.079715 0.260968
-0.178082 -0.060386 0.259961
-0.142574 -0.077471 0.265634
-0.228868 -0.044958 0.247588
-0.055706 -0.202007 -0.228474
0.403142 0.161074 0.235254
-0.195648 -0.061490 0.255294
0.325843 -0.226613 0.238644
0.361794 -0.217236 0.241277
-0.391943 0.002358 -0.140090
0.684279 -0.073820 -0.219112
-0.190743 0.118860 0.199870
-0.205368 0.122978 0.190235
-0.407856 0.003939 -0.123788
0.665604 0.158865 0.150867
0.675968 0.169647 0.130057
0.428897 -0.134126 0.274723
0.527976 0.207803 -0.149578
0.488583 0.215290 -0.153403
0.382738 0.203014 -0.194387
0.343528 0.193625 -0.209541
0.814254 0.135970 0.062094
0.789685 0.142177 0.091230
0.784436 0.156046 0.071442
0.890820 -0.091732 -0.028176
0.554904 0.010956 -0.255578
0.803877 0.071365 -0.128520
0.830976 0.064180 -0.106906
0.811459 0.088368 -0.110619
-0.341857 0.003077 0.180919
-0.348070 0.004786 0.176351
-0.310087 0.000906 0.198886
-0.050662 0.239126 0.115219
-0.051938 0.229880 0.132844
-0.093594 0.223453 0.125611
-0.190682 -0.020980 0.247934
0.856171 0.089434 -0.046980
0.871051 0.078893 -0.023494
-0.128951 0.203492 0.169221
-0.285525 0.043297 0.195717
-0.286544 0.040712 0.196905
-0.360481 0.021861 0.170174
-0.374204 0.022443 0.162802
-0.388478 0.024894 0.148970
0.040944 -0.120863 -0.264416
0.022955 -0.105229 -0.267595
-0.410961 0.009490 0.125031
-0.419621 0.009745 0.115145
-0.388786 0.008253 0.145172
-0.469834 0.020642 -0.079624
-0.476088 0.021697 -0.062610
-0.281044 0.043757 0.205718
-0.290229 0.038178 0.202320
-0.311445 0.035907 0.190917
0.132104 -0.075838 0.303529
0.234298 0.288646 -0.017333
-0.544910 0.094361 0.005647
-0.534854 0.083173 0.037113
0.504827 -0.277622 -0.107296
-0.298725 -0.083309 -0.181111
-0.290554 -0.098523 -0.178348
-0.255560 -0.115400 -0.187444
-0.422684 0.005007 -0.105829
-0.432162 0.006116 -0.096662
0.523852 -0.006027 -0.271307
0.512760 0.016254 -0.270905
-0.200269 0.033266 -0.227672
-0.398644 0.120731 -0.010701
-0.375921 0.143499 -0.001127
-0.447877 -0.012855 -0.004341
-0.445226 -0.003189 -0.022960
-0.443978 0.008439 -0.026396
-0.438424 0.022666 -0.038719
-0.538840 0.106622 -0.014758
-0.555425 0.118405 0.048725
0.383853 0.098214 0.284621
0.831516 -0.084690 -0.102506
0.835670 -0.102301 -0.083646
-0.428475 0.040326 0.052145
-0.437585 0.027270 0.037820
0.715232 -0.110938 0.188196
-0.270795 0.043121 -0.193437
-0.292851 0.034920 -0.184497
-0.259192 0.041606 -0.199695
-0.405300 0.048414 -0.098025
-0.386967 0.057713 -0.115413
-0.344244 0.018450 -0.164979
-0.455965 -0.000751 -0.008929
0.189842 0.302824 0.048809
0.229531 0.298829 0.072016
0.172139 0.297755 0.073439
0.086689 -0.071266 -0.295944
0.119958 -0.064374 -0.298937
0.054678 -0.058763 -0.294174
0.336245 0.219441 -0.181769
0.296603 0.218991 -0.186809
0.330466 0.207407 -0.196493
0.037132 -0.011458 0.298085
0.008122 -0.001444 0.294297
-0.105369 0.013316 -0.262415
-0.065003 0.010059 -0.272183
0.392387 -0.316961 -0.141115
0.867828 0.060850 0.075411
0.848005 0.073480 0.095604
0.846527 0.092554 0.078193
0.072933 0.177142 -0.232698
-0.458336 0.016625 -0.093632
-0.443691 0.012219 -0.108849
-0.475946 0.029337 0.159215
-0.457095 0.000078 -0.002512
-0.453201 -0.000099 -0.025753
-0.455071 -0.001785 -0.009004
-0.455856 -0.002097 0.005305
-0.449501 0.000538 -0.042415
-0.297292 -0.004957 0.206348
-0.261302 -0.010270 0.222430
-0.352940 0.005025 -0.160665
-0.344063 0.006437 -0.165573
-0.224926 0.180419 -0.139671
-0.264538 0.159558 -0.137622
-0.241756 0.162064 -0.149537
-0.270055 0.194559 0.084761
-0.444755 -0.004656 -0.035523
-0.449692 -0.006363 -0.015234
-0.445948 -0.004721 -0.033059
0.194442 -0.073783 -0.300488
0.160237 -0.058760 -0.301329
-0.207151 -0.118845 -0.206400
-0.247938 -0.099640 -0.198530
-0.215156 -0.123373 -0.201022
-0.433271 0.005588 0.076698
-0.442828 -0.001947 0.056269
-0.404997 0.011973 0.121494
-0.388805 0.015963 0.137325
-0.440877 0.024890 0.053313
-0.448087 0.024608 0.031037
0.253296 -0.010497 0.308486
0.310357 -0.010223 0.305859
0.267574 0.008788 0.306467
0.318482 -0.000399 0.304745
-0.424147 0.028540 0.101177
-0.429999 0.028649 0.090808
-0.091294 0.262006 -0.069091
-0.452487 0.001215 -0.035705
-0.524210 0.070946 0.061088
0.510723 -0.287767 -0.081193
0.472625 -0.300397 -0.070932
-0.448718 -0.007460 0.032418
0.482824 -0.308152 0.023640
0.496173 -0.305953 -0.005212
-0.453769 0.006501 0.052573
0.862646 0.078467 0.036503
-0.496572 0.055074 0.015957
-0.491575 0.052369 0.036435
-0.496066 0.055468 0.041389
0.845077 0.090610 0.058048
-0.232208 -0.008646 0.242007
-0.275348 -0.000905 0.225388
-0.236355 -0.005473 -0.226036
-0.283297 -0.004062 -0.206103
-0.268816 -0.001878 -0.211482
-0.203818 -0.009985 -0.239096
0.551785 -0.283331 -0.058466
-0.378545 0.020219 -0.146993
-0.406294 0.026657 -0.125848
-0.276159 0.080463 -0.184200
-0.305519 0.073989 -0.170837
-0.311618 0.067986 -0.168816
-0.441856 0.023999 -0.040014
0.469263 -0.035707 -0.282568
0.480046 -0.016042 -0.280430
0.517361 -0.028784 -0.273378
0.710595 -0.228875 -0.013529
0.343779 0.264046 -0.136722
0.390666 0.267993 -0.118334
-0.448866 -0.008219 0.029235
-0.443022 -0.002677 0.053807
-0.462935 0.006041 0.011391
-0.460566 0.005366 0.025639
-0.333249 -0.000641 -0.179080
0.389919 -0.301510 -0.162602
0.437734 -0.305198 -0.145463
0.199245 -0.246354 -0.229603
0.259616 -0.255598 -0.222186
0.238418 -0.240453 -0.233670
-0.429681 0.004720 -0.064828
-0.433089 0.001502 -0.059238
-0.418952 0.011643 -0.081001
0.756436 -0.065835 0.184327
-0.146754 0.039979 0.253376
-0.139085 0.011973 0.263445
-0.425284 0.076067 0.042112
-0.410769 0.102873 0.031675
-0.411867 0.090524 0.055639
0.162875 -0.310356 -0.123047
0.151797 -0.194282 -0.260665
-0.048180 0.016662 -0.274366
-0.427007 0.013473 -0.066771
-0.416393 0.022226 -0.081235
-0.396411 0.003303 -0.132412
0.210763 -0.241351 0.209506
-0.213560 0.035542 -0.222398
-0.201036 0.032331 -0.228344
-0.443122 0.019616 -0.117384
-0.477021 0.050776 -0.090404
0.575372 0.117390 0.237884
0.192942 0.245125 0.187729
0.170771 0.066034 0.302549
0.137352 0.053659 0.302935
0.106894 0.060243 0.299891
0.494223 0.260944 -0.029692
0.538539 0.251638 -0.024559
-0.420038 0.030073 -0.098889
-0.425620 0.030953 -0.094632
-0.446655 0.034173 -0.064972
-0.471913 0.039927 0.027773
-0.245625 0.053000 0.220256
-0.255652 0.046455 0.217349
-0.394936 0.005930 -0.121859
-0.380068 0.007878 -0.134553
-0.164525 0.252108 0.016416
-0.135367 0.258397 0.038461
-0.171728 0.246973 0.041860
-0.458060 0.017243 -0.100260
0.755897 -0.131430 0.149400
0.001817 -0.028073 -0.288323
0.030201 -0.021484 -0.291728
-0.019018 0.119719 0.250818
-0.006214 0.113295 0.256914
-0.415819 0.008985 0.116180
-0.432414 0.003460 -0.081585
-0.430365 0.002826 -0.082830
-0.443011 0.002653 -0.062595
0.024888 -0.112488 -0.282107
0.058354 -0.109365 -0.286554
-0.457392 0.020338 0.087079
0.126923 -0.110213 -0.276141
0.112459 -0.093834 -0.280050
-0.273329 0.075315 0.185759
-0.257839 0.074753 0.194240
-0.296385 0.066021 0.177375
0.044655 0.287194 -0.066182
0.026814 0.289599 -0.043333
-0.005674 0.282107 -0.057571
0.068462 -0.101239 -0.274083
0.318904 0.007476 -0.298119
0.364000 0.017342 -0.293313
0.309212 0.022413 -0.296605
-0.459318 0.018244 -0.130268
-0.463072 0.020364 -0.121983
-0.442496 0.005205 0.073379
-0.433227 0.005991 0.089074
-0.426881 0.007366 0.099053
-0.041671 0.024394 0.285237
-0.012963 0.031867 0.289533
-0.448497 -0.011439 0.015563
-0.355982 0.019118 0.177701
0.601477 -0.178361 -0.210984
0.805088 0.031542 -0.142598
0.813639 0.006591 -0.139373
-0.327158 0.154181 -0.089186
-0.433954 0.026856 -0.059594
0.195617 -0.283727 -0.198585
0.205851 -0.021548 -0.303284
0.207746 -0.012723 -0.302779
-0.507064 0.116570 -0.032192
-0.445118 0.019267 0.019522
-0.447239 0.018238 -0.001147
-0.447114 0.017851 0.000181
-0.393109 0.014940 -0.114606
-0.417590 0.005534 -0.087373
-0.399338 0.011196 -0.108850
-0.404855 0.027252 0.131972
-0.088213 0.209401 0.178808
-0.137097 0.189438 0.182842
0.819344 0.064783 0.134005
-0.444334 0.019160 0.021644
-0.447246 0.017442 0.001180
-0.447308 0.017176 0.001312
-0.473217 0.041897 0.041436
0.647556 -0.228768 -0.103579
0.672467 -0.229613 -0.079510
0.588500 0.170000 0.198171
0.544713 0.181295 0.203616
-0.330324 0.017476 -0.167987
0.878789 -0.082978 -0.013652
0.888280 -0.067224 0.007412
-0.259857 0.028016 0.219180
-0.299956 0.023680 0.199862
-0.282619 0.027973 0.207937
-0.491755 0.052006 0.011482
-0.014671 -0.131658 0.274143
-0.048508 -0.111948 0.275716
-0.029695 -0.106727 0.280280
-0.327810 -0.028565 -0.203778
-0.286128 -0.040360 -0.219927
-0.315439 -0.029073 -0.207615
-0.320111 0.045201 0.174045
-0.350382 0.039585 0.155126
-0.348920 0.041158 0.155193
0.293001 0.253879 0.172731
-0.428854 0.031659 0.057925
-0.429571 0.030194 0.058081
-0.438273 0.023743 0.040577
-0.437814 0.024651 0.040833
0.772809 0.078135 -0.149105
0.791108 0.054815 -0.145902
-0.409608 0.032547 -0.086625
0.096097 -0.082269 0.300516
0.586634 0.151926 0.213038
-0.446768 -0.003033 0.048711
-0.440220 0.000168 0.066191
-0.429778 0.005150 0.086266
-0.438727 0.000568 0.068827
-0.373814 0.017944 -0.151998
-0.431991 0.003994 0.082926
0.609544 0.202649 0.122076
0.055361 0.255759 -0.144990
-0.002786 0.234451 -0.163004
-0.228538 0.018892 -0.219812
-0.221736 0.021278 -0.221812
-0.182339 0.018149 -0.236173
-0.358312 0.078932 0.139668
0.049922 0.244323 -0.161622
0.152364 -0.320757 0.095700
0.090929 0.241248 -0.172941
-0.228087 -0.027171 0.246982
-0.319262 0.022858 0.188939
-0.339159 0.021484 0.176310
-0.424039 0.035992 0.083728
-0.432607 0.018922 0.073709
0.867743 -0.035874 -0.080676
0.848804 -0.051356 -0.099748
0.855960 -0.018863 -0.098972
-0.342258 0.011215 -0.171501
-0.314315 0.002921 -0.187666
0.784817 0.016028 -0.159598
-0.455546 0.000543 -0.019537
-0.181588 0.165975 0.163455
-0.216045 0.157042 0.154518
0.789878 -0.172188 -0.105283
-0.460152 0.003896 -0.009389
-0.460459 0.003166 0.004798
-0.332727 0.032736 0.178292
-0.173156 0.214762 0.092442
-0.098215 -0.047522 0.278784
0.900263 -0.070301 0.019780
0.636432 0.162413 -0.157350
0.631637 0.147213 -0.174923
-0.402783 0.025722 0.145254
-0.374115 0.020490 0.167471
-0.318639 0.040346 0.177719
-0.354584 -0.017806 -0.190157
-0.336003 -0.020851 -0.197139
-0.375193 -0.009742 -0.177320
-0.392801 0.023331 0.156885
-0.318177 0.018655 0.194717
-0.344044 0.021966 0.177954
0.905606 -0.024189 0.019440
-0.441658 0.032536 -0.037111
-0.446163 0.021175 -0.022227
-0.447729 0.015155 -0.004327
-0.358988 -0.053664 -0.186536
0.432139 0.266713 -0.059529
-0.446081 0.019911 -0.022255
-0.038360 0.095963 0.259251
-0.046857 0.101929 0.254560
-0.438542 -0.012430 0.136118
-0.394063 -0.060551 0.145220
-0.380504 -0.026164 -0.186057
-0.381587 -0.022410 -0.185237
0.643361 0.219830 0.034011
0.731479 -0.055455 -0.200560
0.691494 -0.059771 -0.218443
0.725298 -0.070879 -0.201224
-0.339339 -0.040858 -0.202168
-0.317865 0.016167 0.191074
-0.438405 0.001349 -0.065270
0.522119 -0.232330 0.198206
-0.406554 0.004726 0.153468
0.513064 -0.184305 0.235001
0.459599 -0.181476 0.248111
-0.341290 0.015698 0.176582
-0.382790 0.134371 -0.027343
-0.356303 0.158102 -0.018058
0.733855 -0.008339 -0.200090
0.729828 0.007080 -0.200081
0.693206 -0.000820 -0.217911
-0.451101 0.024797 0.009921
-0.249551 -0.013007 -0.216218
-0.216258 -0.024363 -0.228183
-0.202606 -0.014548 -0.232260
0.656835 0.117733 0.193002
0.633421 0.135764 0.189750
0.890600 -0.046426 0.065969
-0.172794 0.206775 0.110611
-0.173246 0.197387 0.126566
-0.036928 -0.315938 0.042148
-0.135098 0.206209 0.134331
0.625465 0.035027 -0.232408
0.609729 0.053252 -0.234082
0.578740 0.039745 -0.245977
-0.455077 0.030556 -0.015224
-0.341153 0.087377 0.130519
0.208596 0.235496 0.173149
0.157590 0.226578 0.183293
0.165306 0.238461 0.167101
0.087744 0.129473 0.261625
0.033864 0.124802 0.257157
-0.025236 0.136309 0.239668
-0.027357 0.127967 0.244106
-0.066455 0.125230 0.237007
-0.448759 0.030610 0.059335
-0.439675 0.030189 0.081838
-0.449890 0.031505 0.063144
0.582959 -0.248635 0.160093
0.626090 -0.246791 0.140935
0.591809 0.180802 0.163469
0.622813 0.164645 0.167310
-0.432947 0.029394 -0.060865
-0.455840 0.031577 0.041235
0.470982 -0.229266 0.214134
-0.372674 0.006551 -0.143015
-0.349351 0.008882 -0.159596
-0.371759 0.007933 -0.142409
-0.088402 0.077444 -0.248012
-0.132902 0.065530 -0.239954
-0.277956 0.171100 0.086490
-0.086670 0.069929 -0.251199
-0.096714 0.083777 -0.243450
-0.104015 -0.144816 -0.226921
-0.105054 -0.136719 -0.230662
-0.127836 -0.131707 -0.226659
0.545462 0.184465 0.178462
-0.146301 -0.007689 0.265627
-0.174974 -0.008733 0.258524
-0.196411 -0.001660 0.250783
-0.336368 0.000955 0.185011
-0.130380 -0.004771 0.268953
-0.445940 0.018483 -0.007385
-0.440741 0.038213 0.001034
-0.181545 0.000492 0.254428
0.768783 0.112815 0.145993
-0.341666 0.053961 0.165461
-0.319971 0.060974 0.178075
0.250372 -0.337257 0.037661
-0.116643 0.167984 0.188909
0.162698 0.274186 -0.127316
0.210562 0.270680 -0.136003
0.159422 0.264156 -0.145628
-0.075045 -0.152887 -0.230252
-0.064702 -0.147147 -0.235547
-0.106809 -0.126822 -0.234754
-0.045100 0.092799 0.270340
-0.072229 0.080812 0.268532
-0.100113 0.082793 0.260992
0.466128 0.178781 -0.201990
0.206069 0.260115 -0.153674
-0.088170 -0.289433 0.087788
-0.102648 -0.293973 0.066763
-0.141622 -0.277012 0.082609
-0.441303 0.023441 -0.041593
-0.449418 -0.001604 0.045418
-0.453954 -0.003927 0.018835
-0.453409 -0.002841 0.027887
-0.017882 0.212817 0.171147
-0.454577 -0.003750 0.001367
-0.446707 -0.009689 -0.014636
0.653180 0.141049 -0.177962
0.621459 0.156489 -0.180389
-0.151966 -0.281711 -0.070708
-0.122478 -0.295970 -0.047639
0.629506 0.171168 -0.163644
-0.514318 0.052816 0.067695
-0.494533 0.041112 0.091050
0.506879 -0.147142 0.243867
-0.332668 0.069781 -0.155077
-0.334400 0.066180 -0.155253
0.348461 -0.340667 -0.111108
0.393926 -0.331539 -0.116113
0.347033 -0.326888 -0.136495
-0.431807 0.002663 -0.079253
0.177677 -0.158968 0.267562
-0.442645 0.001614 -0.059326
-0.428610 0.002562 -0.082683
0.374711 -0.280109 0.186217
0.548875 -0.324517 0.007023
0.457980 0.207485 -0.173214
0.417819 0.212668 -0.176364
0.425070 0.198505 -0.191385
-0.359691 0.000885 0.173104
-0.362379 0.002497 0.170374
-0.133788 0.224393 0.100293
0.214394 -0.124437 0.294065
-0.447126 -0.010900 -0.012013
-0.448514 -0.013052 0.006088
-0.448449 -0.012384 0.011442
-0.222555 -0.002234 0.242815
-0.396628 0.026316 -0.127428
-0.420499 0.030141 -0.103193
0.095275 -0.284146 -0.156353
0.703763 -0.248790 0.075839
-0.531661 0.066310 0.046631
-0.529735 0.063372 0.046505
0.887246 -0.038435 -0.042856
0.244859 0.289078 0.007334
0.746729 0.153202 0.092943
0.762323 -0.210920 0.081167
0.762193 -0.221654 0.056462
0.734108 -0.230277 0.078661
-0.043743 0.021607 0.282819
-0.050708 0.014254 0.282985
-0.499496 0.061795 -0.061728
-0.510365 0.068167 -0.046222