# vtk DataFile Version 2.0
Simplicial Mesh Example
ASCII
DATASET UNSTRUCTURED_GRID
POINTS 9769 double
-1.233746e+04 -3.653060e+04 -2.489835e+05
-1.135582e+04 -3.558715e+04 -2.491763e+05
-1.250281e+04 -3.509066e+04 -2.491913e+05
-1.092068e+04 -3.419548e+04 -2.493832e+05
-3.063912e+04 -2.852440e+04 -2.484497e+05
-3.080408e+04 -2.719742e+04 -2.485898e+05
-2.922690e+04 -2.768800e+04 -2.487275e+05
-2.744826e+04 -2.947836e+04 -2.487330e+05
-2.611224e+04 -2.845943e+04 -2.489960e+05
-2.637420e+04 -2.714402e+04 -2.490993e+05
-2.795639e+04 -2.664826e+04 -2.489742e+05
-2.765975e+04 -2.818284e+04 -2.488528e+05
-5.802992e+04 -2.255995e+04 -2.441788e+05
-5.819171e+04 -2.119598e+04 -2.442647e+05
-5.632055e+04 -2.042785e+04 -2.447668e+05
-5.675955e+04 -2.145355e+04 -2.445786e+05
-5.764680e+04 -2.006971e+04 -2.444955e+05
-6.118283e+04 -2.169037e+04 -2.434902e+05
-5.909502e+04 -1.966443e+04 -2.441768e+05
-3.921988e+04 -2.416121e+04 -2.477233e+05
-3.759070e+04 -2.441142e+04 -2.479422e+05
-4.033491e+04 -2.635777e+04 -2.473129e+05
-3.869943e+04 -2.660876e+04 -2.475478e+05
-4.084906e+04 -2.391100e+04 -2.475045e+05
-5.007196e+04 -2.456566e+04 -2.457442e+05
-5.049023e+04 -2.192660e+04 -2.458994e+05
-4.890133e+04 -2.231784e+04 -2.461944e+05
-3.542847e+04 -2.711072e+04 -2.480176e+05
-3.382998e+04 -2.757044e+04 -2.481664e+05
-3.205095e+04 -2.686788e+04 -2.484739e+05
-3.270315e+04 -2.516205e+04 -2.485987e+05
-3.433234e+04 -2.491184e+04 -2.483798e+05
-2.026879e+04 -2.969289e+04 -2.493778e+05
-2.002750e+04 -3.132612e+04 -2.492007e+05
-2.437141e+04 -3.072969e+04 -2.489011e+05
-2.451188e+04 -2.908383e+04 -2.491059e+05
-2.321881e+04 -2.815832e+04 -2.493404e+05
-4.729833e+04 -2.266191e+04 -2.464686e+05
-4.845632e+04 -2.489153e+04 -2.460207e+05
-3.112076e+04 -2.565672e+04 -2.487241e+05
-3.223455e+04 -2.804742e+04 -2.483080e+05
-5.366805e+04 -2.114412e+04 -2.453093e+05
-5.644937e+04 -2.298849e+04 -2.445122e+05
-5.499430e+04 -2.078599e+04 -2.450381e+05
-2.479201e+04 -2.763979e+04 -2.492243e+05
-2.585477e+04 -2.996041e+04 -2.488727e+05
-2.140468e+04 -3.226825e+04 -2.489579e+05
-1.855762e+04 -3.209677e+04 -2.492186e+05
-1.992131e+04 -3.303753e+04 -2.489863e+05
-1.879378e+04 -3.046017e+04 -2.493966e+05
-1.731877e+04 -3.122746e+04 -2.494153e+05
-1.843795e+04 -3.380682e+04 -2.490147e+05
-1.719895e+04 -3.293953e+04 -2.492196e+05
-4.522504e+04 -2.554327e+04 -2.465739e+05
-4.568775e+04 -2.298057e+04 -2.467317e+05
-5.486166e+04 -2.339999e+04 -2.448321e+05
-5.621073e+03 -4.005124e+04 -2.486932e+05
-4.573551e+03 -3.715910e+04 -2.491834e+05
-6.785660e+03 -3.594008e+04 -2.493079e+05
3.013014e+04 -6.910702e+04 -2.404587e+05
2.797045e+04 -7.113076e+04 -2.401293e+05
2.548381e+04 -6.878317e+04 -2.410871e+05
2.765599e+04 -6.677177e+04 -2.414124e+05
-8.951216e+03 -3.502641e+04 -2.493474e+05
-9.262409e+03 -3.784003e+04 -2.489464e+05
-4.197039e+04 -2.610679e+04 -2.470779e+05
-2.904369e+04 -2.900138e+04 -2.485913e+05
-6.275490e+04 -2.124888e+04 -2.431343e+05
-6.080548e+04 -1.918576e+04 -2.438003e+05
-4.407717e+04 -2.329922e+04 -2.469948e+05
9.672555e+03 -5.064339e+04 -2.466473e+05
-1.563958e+03 -4.292456e+04 -2.482813e+05
-3.592516e+03 -4.148790e+04 -2.484873e+05
1.882375e+02 -4.063787e+04 -2.486631e+05
2.809387e+03 -4.275184e+04 -2.483185e+05
1.221230e+04 -5.301729e+04 -2.460158e+05
1.782227e+04 -6.183546e+04 -2.436350e+05
1.515679e+04 -5.960156e+04 -2.443540e+05
1.738488e+04 -5.763765e+04 -2.446769e+05
2.776751e+03 -4.730942e+04 -2.474550e+05
5.058173e+03 -4.542200e+04 -2.477729e+05
5.039007e+03 -4.999167e+04 -2.469075e+05
7.306959e+03 -4.809216e+04 -2.472273e+05
-5.326716e+04 -2.379533e+04 -2.451391e+05
-5.207914e+04 -2.153536e+04 -2.456043e+05
5.144963e+02 -4.462716e+04 -2.480024e+05
-3.596152e+04 -2.466163e+04 -2.481610e+05
-3.706395e+04 -2.685974e+04 -2.477827e+05
2.515880e+04 -6.444035e+04 -2.423141e+05
2.297311e+04 -6.643977e+04 -2.419909e+05
2.261297e+04 -6.213874e+04 -2.431532e+05
1.475204e+04 -5.539119e+04 -2.453842e+05
1.250806e+04 -5.734532e+04 -2.450609e+05
-2.288804e+04 -3.149897e+04 -2.489295e+05
-2.164825e+04 -3.063970e+04 -2.491514e+05
-2.174380e+04 -2.892561e+04 -2.493591e+05
-2.323003e+03 -3.880326e+04 -2.489374e+05
-7.649631e+03 -3.861457e+04 -2.488992e+05
2.041278e+04 -6.412689e+04 -2.428309e+05
2.003530e+04 -5.986003e+04 -2.439553e+05
-5.167266e+04 -2.419067e+04 -2.454461e+05
-4.246658e+04 -2.361787e+04 -2.472579e+05
-4.360587e+04 -2.585581e+04 -2.468430e+05
-1.434672e+04 -3.275000e+04 -2.494456e+05
-1.584376e+04 -3.199474e+04 -2.494340e+05
-1.563359e+04 -3.358045e+04 -2.492556e+05
-2.312817e+04 -2.987488e+04 -2.491227e+05
-1.271318e+04 -3.343920e+04 -2.494159e+05
-1.411066e+04 -3.438507e+04 -2.492138e+05
-1.387498e+04 -3.587589e+04 -2.490020e+05
9.964145e+03 -5.494919e+04 -2.456927e+05
-1.541251e+04 -3.522118e+04 -2.490206e+05
-4.684068e+04 -2.521740e+04 -2.462973e+05
-2.953857e+04 -2.615249e+04 -2.488492e+05
-1.695003e+04 -3.456647e+04 -2.490391e+05
-5.961047e+04 -2.213141e+04 -2.438453e+05
7.420233e+03 -5.255307e+04 -2.463244e+05
-1.079993e+04 -3.718531e+04 -2.489650e+05
1.495822e+04 -1.449321e+04 -2.510906e+05
1.539993e+04 -1.734304e+04 -2.508900e+05
2.825770e+04 -3.186891e+04 -2.483334e+05
2.781701e+04 -3.361868e+04 -2.481673e+05
2.895185e+04 -3.481219e+04 -2.478975e+05
2.928051e+04 -3.303862e+04 -2.480815e+05
3.093099e+04 -3.253610e+04 -2.479662e+05
3.037031e+04 -3.422003e+04 -2.477955e+05
3.825428e+04 -4.141124e+04 -2.455851e+05
3.662912e+04 -4.175228e+04 -2.457822e+05
3.317589e+04 -3.981035e+04 -2.465754e+05
3.456395e+04 -3.920769e+04 -2.464828e+05
3.350441e+04 -3.795594e+04 -2.468141e+05
3.518882e+04 -3.756156e+04 -2.466476e+05
4.209807e+04 -4.669660e+04 -2.440300e+05
4.068640e+04 -4.722709e+04 -2.441529e+05
4.171732e+04 -4.839214e+04 -2.437496e+05
4.003531e+04 -4.888664e+04 -2.439485e+05
8.988085e+03 -1.221757e+04 -2.515243e+05
3.907471e+04 -4.757969e+04 -2.443395e+05
1.349151e+04 -1.273577e+04 -2.512804e+05
1.152350e+04 -1.267725e+04 -2.513952e+05
4.116134e+04 -5.003754e+04 -2.435088e+05
4.284441e+04 -4.952638e+04 -2.433132e+05
4.322585e+04 -4.785960e+04 -2.435897e+05
2.634775e+04 -2.774326e+04 -2.490388e+05
2.492586e+04 -2.836640e+04 -2.491159e+05
2.601447e+04 -2.951791e+04 -2.488595e+05
2.440096e+04 -3.004637e+04 -2.489680e+05
1.571514e+04 -2.006298e+04 -2.506994e+05
1.739439e+04 -1.967583e+04 -2.506151e+05
1.756487e+04 -1.761657e+04 -2.507532e+05
1.631460e+04 -1.611846e+04 -2.509150e+05
1.429677e+04 -1.613873e+04 -2.510271e+05
1.306038e+04 -1.459487e+04 -2.511917e+05
1.251786e+04 -1.623235e+04 -2.511184e+05
1.358362e+04 -1.750922e+04 -2.509787e+05
2.213151e+04 -2.765632e+04 -2.494945e+05
2.271475e+04 -2.597819e+04 -2.496048e+05
2.407601e+04 -2.532543e+04 -2.495566e+05
2.381688e+04 -2.718451e+04 -2.493782e+05
3.921523e+04 -4.273258e+04 -2.451963e+05
3.763198e+04 -4.312466e+04 -2.453777e+05
3.874891e+04 -4.456942e+04 -2.449417e+05
1.145211e+04 -1.495547e+04 -2.512580e+05
3.211988e+04 -3.856081e+04 -2.469059e+05
3.412624e+04 -3.630385e+04 -2.469787e+05
3.106387e+04 -3.731127e+04 -2.472364e+05
3.246101e+04 -3.670257e+04 -2.471429e+05
3.140799e+04 -3.545491e+04 -2.474712e+05
5.589840e+04 -5.676971e+04 -2.390704e+05
5.378342e+04 -5.888983e+04 -2.390422e+05
5.380723e+04 -5.575881e+04 -2.397817e+05
5.183276e+04 -5.795033e+04 -2.396978e+05
3.423190e+04 -4.105990e+04 -2.462448e+05
3.000786e+04 -3.606173e+04 -2.475670e+05
3.621121e+04 -4.364156e+04 -2.455071e+05
2.704126e+04 -3.068424e+04 -2.486079e+05
5.062341e+04 -5.404188e+04 -2.408645e+05
4.985222e+04 -5.524630e+04 -2.407509e+05
5.206738e+04 -5.489310e+04 -2.403694e+05
5.002876e+04 -5.705076e+04 -2.402994e+05
3.716571e+04 -4.495427e+04 -2.451179e+05
4.509612e+04 -5.182840e+04 -2.424340e+05
4.453942e+04 -5.349023e+04 -2.421900e+05
4.622842e+04 -5.293333e+04 -2.419940e+05
4.791028e+04 -5.229810e+04 -2.418026e+05
4.747677e+04 -5.371475e+04 -2.415711e+05
5.817740e+04 -5.779827e+04 -2.382829e+05
5.605281e+04 -5.991611e+04 -2.382691e+05
-4.844380e+04 3.687166e+04 -2.445356e+05
-4.633777e+04 3.900463e+04 -2.446129e+05
-4.581169e+04 3.464403e+04 -2.453656e+05
-4.368860e+04 3.676275e+04 -2.454447e+05
2.863937e+04 -3.013968e+04 -2.485025e+05
1.464938e+04 -1.878610e+04 -2.508391e+05
3.625140e+04 -3.881927e+04 -2.463166e+05
3.561763e+04 -4.045977e+04 -2.461522e+05
1.785323e+04 -2.259629e+04 -2.503097e+05
1.844355e+04 -2.092360e+04 -2.504162e+05
1.977030e+04 -2.023363e+04 -2.503705e+05
1.951162e+04 -2.218741e+04 -2.502142e+05
4.436014e+04 -4.901642e+04 -2.431473e+05
3.306367e+04 -3.504614e+04 -2.473097e+05
4.017618e+04 -4.405392e+04 -2.448075e+05
1.629162e+04 -1.854579e+04 -2.507646e+05
-7.960906e+03 3.441620e+03 -2.518037e+05
-6.901974e+03 -3.631614e+02 -2.518799e+05
-5.383634e+03 2.076760e+03 -2.519005e+05
-1.088666e+04 4.991030e+03 -2.516938e+05
-1.130171e+04 1.967184e+03 -2.516971e+05
4.582768e+04 -5.443496e+04 -2.417339e+05
4.878107e+04 -5.455579e+04 -2.411217e+05
4.717601e+04 -5.530333e+04 -2.412716e+05
2.749356e+04 -2.894147e+04 -2.487707e+05
4.926685e+04 -5.316999e+04 -2.413335e+05
2.058154e+04 -2.345334e+04 -2.500115e+05
2.299958e+04 -2.405248e+04 -2.497601e+05
-1.666051e+04 9.083336e+03 -2.512394e+05
-1.614897e+04 4.983797e+03 -2.513964e+05
1.892280e+04 -2.386130e+04 -2.501059e+05
4.397044e+04 -5.067728e+04 -2.428736e+05
4.549443e+04 -5.017324e+04 -2.427050e+05
3.729334e+04 -4.008990e+04 -2.459738e+05
3.525671e+04 -4.232885e+04 -2.458963e+05
2.520194e+04 -2.654505e+04 -2.493070e+05
2.084673e+04 -2.150658e+04 -2.501671e+05
2.165067e+04 -2.471833e+04 -2.498077e+05
2.192316e+04 -2.277953e+04 -2.499636e+05
-2.194706e+04 1.379335e+04 -2.506223e+05
-1.950554e+04 1.122308e+04 -2.509871e+05
-2.180267e+04 9.237037e+03 -2.508832e+05
-2.671924e+04 1.904172e+04 -2.498421e+05
-3.118992e+04 1.973752e+04 -2.492434e+05
-2.893778e+04 1.704242e+04 -2.497371e+05
-1.897582e+04 7.110417e+03 -2.511398e+05
4.228737e+04 -5.118844e+04 -2.430692e+05
-3.598529e+04 2.966622e+04 -2.476348e+05
-1.381548e+04 6.943596e+03 -2.514916e+05
-2.434846e+04 1.640642e+04 -2.502462e+05
-2.658770e+04 1.441866e+04 -2.501422e+05
[...]
POINT_DATA 9769
VECTORS displacement double
0.018511 -0.059011 0.017802
0.016767 -0.055654 0.013293
0.017999 -0.058532 0.017768
0.015726 -0.054132 0.012513
0.034088 -0.068130 0.090069
0.032771 -0.067442 0.090263
0.032062 -0.067384 0.084163
0.032638 -0.067960 0.076573
0.028448 -0.070335 0.074958
0.027774 -0.068280 0.076539
0.029442 -0.066441 0.081183
0.031057 -0.067680 0.078444
0.037240 -0.080570 0.164423
0.035146 -0.079439 0.166326
0.032364 -0.074852 0.164880
0.034445 -0.077114 0.164545
0.032961 -0.076207 0.167305
0.043610 -0.090602 0.159074
0.034089 -0.076995 0.169401
0.036554 -0.060422 0.114358
0.035995 -0.060054 0.109427
0.040472 -0.060938 0.118038
0.040068 -0.060612 0.112518
0.036530 -0.061193 0.119469
0.037988 -0.068811 0.149035
0.033471 -0.069074 0.150488
0.034131 -0.067510 0.145671
0.037237 -0.063028 0.103954
0.034770 -0.068391 0.101810
0.033152 -0.067427 0.095070
0.032634 -0.063709 0.097760
0.033976 -0.061717 0.102124
0.021713 -0.074092 0.051340
0.022154 -0.075769 0.049256
0.025858 -0.080607 0.067801
0.025821 -0.075390 0.069608
0.024050 -0.073366 0.065226
0.034755 -0.066080 0.140826
0.038615 -0.066930 0.144280
0.031526 -0.065256 0.092348
0.034221 -0.068469 0.096164
0.032398 -0.072196 0.158984
0.036641 -0.077451 0.162998
0.032277 -0.073516 0.162090
0.025866 -0.071020 0.071570
0.028189 -0.074981 0.072867
0.023830 -0.078743 0.055292
0.021244 -0.074010 0.042691
0.022870 -0.077255 0.049029
0.020771 -0.072753 0.044461
0.019897 -0.070452 0.037622
0.021985 -0.075316 0.042945
0.020581 -0.071414 0.036531
0.039466 -0.064619 0.135153
0.035273 -0.064883 0.135782
0.036629 -0.074953 0.160227
0.004759 -0.050228 -0.016527
0.005258 -0.042790 -0.011346
0.009695 -0.046534 -0.002072
-0.083401 0.081225 -0.069157
-0.083972 0.082277 -0.080424
-0.070940 0.068735 -0.076055
-0.072817 0.073324 -0.066481
0.013259 -0.049762 0.005587
0.013660 -0.052241 0.004179
0.040583 -0.061498 0.123246
0.033789 -0.068038 0.083357
0.053425 -0.099654 0.151620
0.036057 -0.077754 0.170151
0.035820 -0.063682 0.130365
-0.025203 0.007200 -0.057266
-0.002018 -0.034897 -0.034019
0.001425 -0.042033 -0.025025
-0.004365 -0.028904 -0.030217
-0.009894 -0.020805 -0.040253
-0.030444 0.017221 -0.059145
-0.045809 0.038641 -0.068857
-0.039266 0.028723 -0.067052
-0.042004 0.036342 -0.061674
-0.012635 -0.019957 -0.054069
-0.015052 -0.012052 -0.048772
-0.017422 -0.010362 -0.058541
-0.020085 -0.002519 -0.054200
0.036889 -0.072826 0.157195
0.032843 -0.070592 0.154930
-0.007755 -0.029145 -0.044629
0.035247 -0.060241 0.105395
0.039408 -0.060434 0.106948
-0.063829 0.064260 -0.064928
-0.061173 0.058386 -0.072873
-0.055864 0.055013 -0.063809
-0.036008 0.026668 -0.060773
-0.033418 0.018766 -0.065628
0.024624 -0.079835 0.061468
0.023276 -0.077257 0.056428
0.022802 -0.074525 0.058313
0.000770 -0.036680 -0.020885
0.009040 -0.053553 -0.004730
-0.053035 0.048331 -0.070789
-0.048606 0.045697 -0.062644
0.037293 -0.070991 0.153519
0.036277 -0.062313 0.124760
0.040079 -0.062887 0.129152
0.018438 -0.063061 0.024985
0.019140 -0.067092 0.031007
0.019978 -0.066727 0.029903
0.024391 -0.077647 0.063154
0.017342 -0.058599 0.018892
0.019328 -0.062425 0.024135
0.020048 -0.062533 0.024321
-0.027839 0.009288 -0.063646
0.021182 -0.065615 0.030723
0.039073 -0.065840 0.139836
0.030557 -0.065903 0.086584
0.021556 -0.070942 0.036983
0.039014 -0.085498 0.163013
-0.022347 -0.000427 -0.061409
0.016621 -0.055130 0.010809
0.004707 0.009773 0.011133
0.002038 0.015320 0.008486
-0.028246 0.056558 0.011400
-0.030022 0.058404 0.006459
-0.033049 0.061942 0.006869
-0.031069 0.059755 0.011577
-0.032337 0.061095 0.016975
-0.034109 0.063005 0.011915
-0.057343 0.082613 0.014494
-0.055467 0.081995 0.009988
-0.046875 0.075830 0.005986
-0.047841 0.076150 0.010987
-0.044180 0.072965 0.011315
-0.045877 0.074029 0.016475
-0.074127 0.092249 0.009083
-0.073158 0.091912 0.004683
-0.077292 0.093680 0.003740
-0.075846 0.093501 -0.001033
0.010378 -0.006253 0.002812
-0.071389 0.092006 0.000606
0.007015 0.004292 0.009891
0.008415 0.000520 0.006324
-0.080026 0.094793 -0.001705
-0.081385 0.095509 0.003441
-0.078293 0.094450 0.008538
-0.020568 0.047514 0.015017
-0.019911 0.046467 0.010117
-0.022589 0.049770 0.010525
-0.021449 0.048023 0.005385
-0.000615 0.020532 0.005031
-0.001895 0.022225 0.009212
-0.000049 0.018898 0.012742
0.002356 0.014587 0.012078
0.003988 0.011456 0.007847
0.006168 0.006689 0.007171
0.005443 0.008551 0.004222
0.003547 0.012682 0.004532
-0.015951 0.041510 0.004915
-0.014493 0.039818 0.009665
-0.015057 0.040567 0.014198
-0.017205 0.043100 0.009788
-0.061431 0.085262 0.013293
-0.059709 0.084841 0.008858
-0.064434 0.087648 0.007585
0.007197 0.004270 0.003804
-0.043258 0.072518 0.006376
-0.042322 0.070889 0.016767
-0.039693 0.069100 0.006703
-0.040687 0.069716 0.011696
-0.037296 0.066368 0.011885
-0.111566 0.118650 0.024810
-0.112516 0.115079 0.014739
-0.106652 0.114546 0.021223
-0.107931 0.110234 0.011939
-0.050544 0.079033 0.005678
-0.036222 0.065578 0.006965
-0.058378 0.085097 0.004415
-0.025255 0.052996 0.010732
-0.099735 0.108235 0.014984
-0.101081 0.106665 0.010642
-0.102859 0.111105 0.017752
-0.104316 0.106316 0.008515
-0.062613 0.087734 0.003183
-0.089256 0.098939 0.003587
-0.092018 0.098287 -0.001156
-0.092949 0.100543 0.004301
-0.093486 0.103090 0.010268
-0.095745 0.102443 0.006409
-0.117981 0.122285 0.027122
-0.119376 0.123288 0.016154
-0.078084 0.135376 0.075398
-0.080136 0.139525 0.062670
-0.070645 0.129918 0.074890
-0.072219 0.133449 0.061768
-0.026304 0.054428 0.016073
0.001526 0.016699 0.004810
-0.049568 0.077019 0.016086
-0.051547 0.079142 0.010646
-0.005321 0.027917 0.005201
-0.004184 0.025839 0.009427
-0.004702 0.026428 0.013552
-0.006636 0.029463 0.009587
-0.082364 0.096622 0.008336
-0.038851 0.067657 0.016991
-0.065605 0.087764 0.011954
0.000196 0.018751 0.008599
0.003828 0.045219 0.045598
0.007460 0.022819 0.059274
0.006781 0.039656 0.039797
-0.000240 0.050195 0.053445
0.001892 0.038990 0.066649
-0.095358 0.099457 0.000775
-0.098704 0.104696 0.008659
-0.098435 0.101294 0.003020
-0.023407 0.050985 0.015541
-0.096644 0.105593 0.012540
-0.009172 0.033021 0.009680
-0.012349 0.037141 0.014126
-0.009959 0.061578 0.065453
-0.006126 0.049261 0.076832
-0.007840 0.031533 0.005223
-0.085402 0.097232 0.003412
-0.086293 0.098724 0.008371
-0.053381 0.079824 0.015518
-0.054355 0.082141 0.005343
-0.017802 0.044030 0.014523
-0.007174 0.030046 0.013824
-0.011795 0.036490 0.009716
-0.009733 0.033631 0.014017
-0.019259 0.073076 0.070823
-0.014813 0.066695 0.070059
-0.015720 0.059422 0.084008
-0.028109 0.086128 0.069075
-0.032366 0.085909 0.079355
-0.027857 0.078746 0.081446
-0.010806 0.054991 0.080273
-0.084065 0.096118 -0.001691
-0.050127 0.114030 0.061554
-0.005038 0.055832 0.060339
-0.023639 0.079611 0.070141
-0.023689 0.071953 0.082776
-0.064454 0.127212 0.061094
-0.055648 0.116310 0.074145
-0.018733 0.044685 0.005016
0.008214 0.026839 0.049132
-0.090056 0.100812 0.008714
-0.019723 0.065520 0.083931
-0.001674 0.043465 0.071933
-0.010453 0.035031 0.005170
-0.002359 0.022765 0.013206
0.009078 -0.001378 0.008215
0.009012 0.031869 0.037071
-0.062951 0.123473 0.074221
-0.032902 0.093059 0.066872
-0.037310 0.093536 0.077299
-0.057039 0.120714 0.061002
-0.048956 0.108742 0.074448
-0.038096 0.100011 0.064649
-0.043804 0.107009 0.062966
0.009414 0.006419 0.056217
0.011300 -0.017902 0.046365
-0.088158 0.097285 -0.001576
0.010724 -0.007795 0.005229
0.011785 -0.013309 0.001780
-0.069863 0.090096 0.010496
-0.068876 0.090000 0.006160
0.004929 0.032332 0.062674
-0.002904 0.024258 0.005179
-0.024237 0.051449 0.005754
-0.013162 0.038395 0.005154
-0.029274 0.057812 0.016535
-0.027068 0.054903 0.006116
-0.101328 0.103385 0.005452
-0.066975 0.090052 0.001890
-0.035511 0.064364 0.017057
-0.042794 0.100996 0.075773
0.011934 -0.015180 0.001322
0.012698 -0.023185 -0.002709
0.010928 -0.015304 0.038299
0.008805 -0.000301 0.003299
0.013215 -0.027147 0.002902
0.012740 -0.020246 0.001205
0.013408 -0.033343 0.009701
0.012461 -0.032258 -0.003412
0.012730 -0.033833 0.025255
0.031054 -0.088288 -0.038428
0.030111 -0.089773 -0.033654
0.029145 -0.085086 -0.048073
0.030229 -0.082902 -0.052222
0.032434 -0.087212 -0.041504
0.029734 -0.087934 -0.040715
0.029725 -0.090075 -0.027692
0.031030 -0.089781 -0.031981
0.030912 -0.090324 -0.026884
0.032677 -0.090359 -0.028283
0.029145 -0.091241 -0.020359
0.032828 -0.092297 -0.014399
0.025499 -0.051680 0.150447
0.016024 -0.036972 0.143765
0.025161 -0.050378 0.147672
0.025236 -0.057096 0.153070
0.029719 -0.079686 -0.058923
0.032613 -0.089093 -0.034884
0.032705 -0.091284 -0.021558
0.029078 -0.092841 -0.011120
-0.044902 0.102505 -0.073932
-0.046254 0.102145 -0.064001
0.029813 -0.075331 -0.069624
0.029638 -0.078054 -0.064124
0.028735 -0.076829 -0.068241
-0.035559 0.088296 -0.088481
-0.038143 0.096877 -0.080265
-0.030858 0.088803 -0.085265
0.028541 -0.075188 -0.074751
0.029347 -0.089726 0.055598
0.024868 -0.088945 0.052648
0.022155 -0.084884 0.063850
0.026933 -0.085285 0.068107
0.020034 -0.081642 0.076006
0.031592 -0.081742 -0.055156
0.027794 -0.068485 -0.078145
0.030990 -0.078861 -0.062156
0.028412 -0.081650 -0.055249
0.032939 -0.094385 0.003811
0.028946 -0.094254 -0.000176
0.032902 -0.093330 -0.006195
-0.048313 0.104015 -0.078382
-0.042777 0.096715 -0.082957
0.018061 -0.079462 0.088808
0.024614 -0.080782 0.081456
-0.021816 0.070037 -0.095991
-0.028499 0.079365 -0.092884
-0.023755 0.079350 -0.088987
-0.002206 0.030970 -0.101461
0.001334 0.032849 -0.104781
-0.006918 0.048424 -0.097978
0.027779 -0.077379 -0.062353
0.019689 -0.080043 0.107002
0.024726 -0.072821 0.116004
-0.006840 0.042412 -0.100069
-0.012130 0.058877 -0.094108
-0.011491 0.052178 -0.098911
-0.017454 0.069185 -0.091326
0.028570 -0.060288 0.149197
0.026410 -0.068146 0.135727
0.022480 -0.068609 0.146356
0.024163 -0.055758 -0.088155
0.022865 -0.056094 -0.094609
0.026463 -0.067983 -0.084038
0.012247 -0.011292 -0.110362
0.023702 -0.076152 0.096515
0.020648 -0.076857 0.128740
0.006335 0.009923 -0.110446
0.031090 -0.093236 0.042846
0.027075 -0.092794 0.040661
-0.016309 0.061464 -0.097597
0.030733 -0.085759 -0.045298
0.019046 -0.036973 -0.097509
0.008153 0.001525 -0.105054
0.028301 -0.095433 0.027842
0.032095 -0.084700 -0.048310
0.013442 -0.016296 -0.103263
0.002969 0.017985 -0.103747
0.028816 -0.095744 0.013602
0.018164 -0.036343 -0.105233
0.032920 -0.095412 0.015824
0.032305 -0.095177 0.029300
0.068856 -0.129427 0.021371
0.071096 -0.128118 0.020882
0.067221 -0.126808 0.014554
0.027663 -0.036406 -0.114091
0.037806 -0.055765 -0.098020
0.046125 -0.066952 -0.093471
0.043235 -0.061108 -0.099502
0.087601 -0.132749 0.097974
0.087753 -0.130605 0.104909
0.086961 -0.127558 0.111916
0.023710 -0.029681 -0.118867
0.033057 -0.042289 -0.116090
0.029133 -0.035686 -0.121189
0.068062 -0.120004 -0.003864
0.064382 -0.117602 -0.009690
0.062124 -0.118395 -0.009194
0.073457 -0.133709 0.042875
0.077106 -0.133806 0.049002
0.080012 -0.133726 0.050833
0.075817 -0.132892 0.042029
0.040794 -0.061968 -0.092137
0.054371 -0.098071 -0.043945
0.059418 -0.101232 -0.041913
0.055697 -0.102338 -0.037739
0.060947 -0.105114 -0.035082
0.015463 -0.016512 -0.127511
0.025071 -0.029050 -0.126026
0.020906 -0.022524 -0.130615
0.085999 -0.134793 0.082634
0.079862 -0.135320 0.074932
0.081872 -0.135108 0.072231
0.084659 -0.135140 0.074610
0.070469 -0.131504 0.028553
0.072667 -0.130161 0.027718
0.075161 -0.129825 0.028578
-0.006660 0.015457 -0.147416
-0.006614 0.016024 -0.155934
0.011313 -0.010255 -0.131645
0.016715 -0.016197 -0.135199
-0.012262 0.023007 -0.159532
-0.018691 0.030673 -0.161926
0.068352 -0.124303 0.007879
0.067024 -0.122320 0.001808
0.072284 -0.126162 0.014850
0.069670 -0.126129 0.014163
0.065909 -0.124864 0.008403
0.059616 -0.112293 -0.020093
0.058411 -0.109467 -0.025651
0.062131 -0.112251 -0.020512
0.064179 -0.112090 -0.021732
0.065494 -0.114901 -0.015531
0.065683 -0.120110 -0.004067
0.063440 -0.120824 -0.003501
0.031360 -0.043088 -0.109053
0.036750 -0.048774 -0.110806
0.082711 -0.129482 0.099969
0.085247 -0.129036 0.105116
0.085258 -0.131900 0.096599
0.075066 -0.134876 0.050604
0.078763 -0.134569 0.056368
0.081559 -0.134551 0.058638
-0.017934 0.030581 -0.155214
-0.026978 0.041759 -0.160632
0.081888 -0.124222 0.108945
0.052805 -0.094142 -0.049778
-0.001933 0.008809 -0.143488
0.003399 0.002895 -0.148089
-0.011856 0.022475 -0.151287
-0.001401 0.009329 -0.152066
0.073685 -0.128040 0.021610
0.076807 -0.135757 0.058767
0.080341 -0.135095 0.064209
0.081182 -0.134337 0.083327
0.083254 -0.134628 0.080337
0.043207 -0.067754 -0.086066
0.082216 -0.132535 0.091693
0.019628 -0.023011 -0.123335
0.061031 -0.109801 -0.025558
0.066675 -0.117482 -0.009697
0.045008 -0.072860 -0.079872
0.050493 -0.077228 -0.081089
0.070888 -0.124320 0.008394
0.051275 -0.089983 -0.055752
0.055048 -0.089663 -0.061707
0.049637 -0.085735 -0.061635
0.056667 -0.093633 -0.055111
0.057113 -0.106180 -0.031513
0.012393 -0.009776 -0.139609
0.084363 -0.133611 0.088475
0.087016 -0.134034 0.090456
0.074278 -0.131770 0.034799
0.071988 -0.132737 0.035618
0.083147 -0.135070 0.066585
0.062640 -0.108900 -0.028273
0.064717 -0.122949 0.002363
0.048579 -0.072384 -0.087336
0.076826 -0.131463 0.035807
0.078444 -0.132725 0.043199
0.078437 -0.135855 0.066804
0.007001 -0.003839 -0.135630
0.002560 0.002476 -0.139520
0.046573 -0.077416 -0.073655
0.052143 -0.081617 -0.074668
0.058074 -0.097532 -0.048584
0.076112 -0.113089 0.119823
0.048061 -0.081590 -0.067570
0.053598 -0.085648 -0.068184
0.007946 -0.003417 -0.143847
0.084685 -0.121638 0.117484
0.040103 -0.055051 -0.105326
0.034685 -0.049552 -0.103709
0.060891 -0.115366 -0.014749
0.063235 -0.114951 -0.014932
0.069516 -0.122265 0.002164
-0.425968 0.182563 -0.106400
-0.426221 0.185914 -0.096876
-0.435993 0.185741 -0.099055
-0.397833 0.203286 0.005200
-0.412767 0.202998 -0.014510
-0.423908 0.200928 -0.036389
-0.389616 0.202081 -0.000243
-0.374210 0.201333 0.017104
-0.242169 0.139770 0.192407
-0.212209 0.120562 0.214903
0.323984 -0.170677 0.225156
0.326311 -0.169152 0.229594
0.334693 -0.177952 0.212029
-0.246054 0.145329 0.180823
-0.264959 0.155699 0.166723
-0.181004 0.103730 0.225731
-0.174884 0.098080 0.232772
-0.344174 0.196885 0.047575
-0.348851 0.197020 0.055347
-0.403546 0.201643 -0.018360
-0.363586 0.199883 0.040957
-0.331987 0.193912 0.060100
-0.335563 0.193630 0.069419
0.124296 -0.084431 0.268665
0.167096 -0.106227 0.263708
-0.424488 0.192360 -0.074884
-0.435286 0.191236 -0.081395
-0.433929 0.194172 -0.069966
-0.002556 -0.008040 0.258358
0.004254 -0.012704 0.263012
0.058808 -0.047912 0.263405
0.065513 -0.051039 0.267374
0.171987 -0.106543 0.268117
0.208885 -0.123267 0.262206
0.214424 -0.123258 0.266540
-0.421458 0.196209 -0.059725
-0.319066 0.189962 0.075535
-0.380804 0.201850 0.024037
0.332813 -0.179676 0.206705
0.336326 -0.186151 0.190373
0.338406 -0.184388 0.196339
0.279311 -0.149096 0.252171
0.247568 -0.137428 0.259079
0.251834 -0.136927 0.262589
0.304714 -0.159311 0.242055
0.282426 -0.148021 0.255941
-0.051863 0.024481 0.253591
-0.046384 0.020284 0.258243
-0.425811 0.189123 -0.086824
-0.435934 0.188448 -0.090835
0.309863 -0.158512 0.245954
-0.139067 0.078692 0.239199
-0.133351 0.073574 0.245098
-0.095325 0.052200 0.247856
-0.090392 0.047782 0.253032
-0.303182 0.183438 0.096989
-0.320607 0.188630 0.086185
-0.302436 0.180495 0.109496
-0.414578 0.199833 -0.039335
-0.358277 0.199285 0.033285
-0.267101 0.160557 0.153318
-0.284323 0.169428 0.138205
-0.217920 0.126372 0.205501
-0.430700 0.197649 -0.055550
-0.285348 0.173456 0.124065
0.119426 -0.083525 0.264658
-0.251648 0.099912 -0.215550
-0.223122 0.085969 -0.224911
-0.259985 0.101216 -0.216678
-0.439450 0.183207 -0.106334
-0.428267 0.180928 -0.111058
0.291275 -0.186336 -0.139859
0.286311 -0.185294 -0.139992
0.278748 -0.178578 -0.150284
0.284568 -0.180366 -0.149443
0.277341 -0.174124 -0.158673
-0.416589 0.175200 -0.123652
-0.413723 0.170777 -0.133474
-0.399747 0.167064 -0.139677
0.270964 -0.171796 -0.160237
0.240230 -0.145713 -0.195904
0.231660 -0.142176 -0.197953
0.218614 -0.132212 -0.209793
0.086958 -0.067996 -0.241733
0.082812 -0.066821 -0.239116
0.113419 -0.080922 -0.237961
0.059361 -0.055268 -0.241099
-0.428605 0.178003 -0.118506
-0.188080 0.071927 -0.229264
-0.218771 0.086089 -0.222600
-0.186600 0.072751 -0.226582
0.347747 -0.226244 -0.064953
0.340873 -0.225836 -0.062587
0.366728 -0.237964 -0.031081
-0.295232 0.116551 -0.205295
-0.283858 0.113607 -0.205982
0.299920 -0.193488 -0.128552
0.294194 -0.192407 -0.127951
-0.035570 -0.004453 -0.231858
0.118694 -0.082219 -0.239990
0.154743 -0.098757 -0.234389
0.149876 -0.097690 -0.232620
0.248909 -0.153973 -0.184098
0.256990 -0.157392 -0.181606
-0.003829 -0.022831 -0.236891
0.017300 -0.034093 -0.238213
0.018941 -0.035192 -0.235881
0.038803 -0.045610 -0.237404
0.268755 -0.166826 -0.169139
0.261956 -0.164122 -0.171266
0.209949 -0.129028 -0.210712
0.190288 -0.116620 -0.222982
0.183644 -0.114627 -0.222348
-0.329153 0.131471 -0.190568
-0.314601 0.127295 -0.193501
0.326516 -0.213619 -0.092436
0.320754 -0.213154 -0.090622
0.305879 -0.201796 -0.112219
-0.115260 0.039237 -0.231329
-0.117734 0.041738 -0.229060
-0.075470 0.018734 -0.230545
-0.391929 0.160392 -0.151952
-0.436878 0.185118 -0.100873
0.037043 -0.044311 -0.239728
-0.004406 -0.022522 -0.234153
-0.032271 -0.006771 -0.234457
-0.154586 0.059216 -0.228235
-0.375194 0.155277 -0.158989
-0.362425 0.146381 -0.172517
-0.345103 0.141146 -0.178000
-0.153351 0.057022 -0.230921
0.375929 -0.238758 -0.032319
0.398952 -0.247527 0.003325
0.410862 -0.248553 0.003598
0.059344 -0.055832 -0.238488
0.310919 -0.202237 -0.113236
-0.071303 0.015667 -0.232682
0.447922 -0.255322 0.040708
0.433796 -0.254620 0.039504
0.442029 -0.255135 0.048105
0.456911 -0.240705 0.181939
0.477254 -0.243963 0.171525
0.286036 -0.189035 0.249538
-0.035984 0.006762 0.347881
-0.007041 -0.010818 0.347547
0.368203 -0.223003 0.208969
0.329800 -0.211663 0.221454
0.292474 -0.195188 0.240087
0.325193 -0.206818 0.230259
-0.395910 0.244602 -0.030838
-0.404066 0.244701 -0.035775
0.035828 -0.035590 0.352043
0.064289 -0.051781 0.348871
0.364771 -0.219422 0.217315
-0.293953 0.205940 0.164384
-0.300352 0.210147 0.156278
-0.391029 0.238633 -0.064877
-0.400371 0.247671 -0.002765
-0.388746 0.246880 0.002830
-0.395761 0.238078 -0.069175
0.435967 -0.234175 0.199304
0.205114 -0.131125 0.317700
0.178889 -0.116714 0.327051
0.165915 -0.107560 0.336299
-0.186234 0.099661 0.310190
-0.291679 0.194344 0.193898
-0.296589 0.198510 0.186629
-0.343334 0.238950 0.064383
-0.361267 0.242024 0.059302
-0.332309 0.233453 0.090856
-0.315448 0.229297 0.097635
0.106755 -0.074866 0.348422
0.232137 -0.155154 0.286167
0.250474 -0.167489 0.273053
-0.345751 0.215985 -0.126213
-0.373140 0.228674 -0.097980
-0.374413 0.227859 -0.100972
-0.385761 0.246623 0.028466
-0.205989 0.115649 0.295985
-0.239556 0.139773 0.274280
-0.223592 0.125094 0.291068
-0.074426 0.031215 0.339345
-0.097518 0.043719 0.338639
-0.144841 0.072848 0.325699
-0.125231 0.062252 0.327705
0.460799 -0.239109 0.188038
0.434097 -0.236144 0.192563
0.403119 -0.227999 0.208059
0.476741 -0.254026 0.118928
0.479940 -0.253810 0.121494
0.465977 -0.256080 0.087512
0.472396 -0.245081 0.166795
0.483096 -0.249307 0.149042
0.479255 -0.249855 0.145753
0.403655 -0.230570 0.200780
0.128468 -0.087676 0.341794
0.210446 -0.137356 0.308158
0.226707 -0.148267 0.296858
0.257820 -0.174905 0.262587
-0.167254 0.089393 0.313545
-0.309796 0.222287 0.123570
-0.298406 0.217551 0.131657
-0.283988 0.179926 0.222503
-0.291013 0.185020 0.215396
-0.370656 0.244818 0.033108
-0.316132 0.202300 -0.148507
-0.286935 0.188397 -0.166744
-0.315808 0.201920 -0.149229
-0.254589 0.147984 0.268342
-0.266313 0.161558 0.249548
-0.277796 0.168470 0.242688
-0.345414 0.215348 -0.127728
0.463591 -0.256066 0.086030
0.165436 -0.069278 -0.255929
0.141630 -0.059641 -0.256305
0.190352 -0.082886 -0.247820
0.420505 -0.222659 0.035541
0.415295 -0.221601 0.021401
0.407792 -0.221512 0.028951
0.425074 -0.222865 0.050607
0.413331 -0.222151 0.040908
0.093095 -0.035081 -0.260519
0.325234 -0.174377 -0.136918
0.318018 -0.170844 -0.142227