# vtk DataFile Version 2.0
Simplicial Mesh Example
ASCII
DATASET UNSTRUCTURED_GRID
POINTS 8878 double
-1.887288e+05 -1.140747e+05 1.219525e+05
-1.845412e+05 -1.124097e+05 1.296635e+05
-1.891969e+05 -1.114813e+05 1.236141e+05
-1.936578e+05 -1.130096e+05 1.150196e+05
-2.288144e+05 -9.781324e+04 -3.975601e+04
-2.289265e+05 -9.562056e+04 -4.419704e+04
-2.307623e+05 -9.519619e+04 -3.450305e+04
-2.302583e+05 -9.796976e+04 -2.978319e+04
-2.237774e+05 -1.090155e+05 3.928471e+04
-2.263734e+05 -9.906501e+04 -4.944917e+04
-2.261649e+05 -9.741792e+04 -5.350896e+04
-2.000827e+05 -1.149402e+05 -1.012900e+05
-1.998927e+05 -1.127111e+05 -1.041302e+05
-1.952789e+05 -1.150509e+05 -1.101519e+05
-1.932785e+05 -1.155813e+05 1.130858e+05
-1.979996e+05 -1.141075e+05 1.062056e+05
-2.140411e+05 -1.146925e+05 6.735027e+04
-2.177541e+05 -1.111044e+05 6.117971e+04
-2.230653e+05 -1.015185e+05 -5.865018e+04
-2.226809e+05 -1.001517e+05 -6.234451e+04
-2.308632e+05 -1.005491e+05 -9.801127e+03
-1.819353e+05 -1.084358e+05 1.365475e+05
-1.785184e+05 -1.097285e+05 1.399815e+05
-1.764303e+05 -1.087539e+05 1.433490e+05
-1.793262e+05 -1.072413e+05 1.408739e+05
-1.773137e+05 -1.063003e+05 1.440975e+05
-2.294523e+05 -1.037028e+05 1.006828e+04
-2.300348e+05 -1.018991e+05 1.430305e+04
-1.861241e+05 -1.119142e+05 -1.278164e+05
-1.906933e+05 -1.112275e+05 -1.215258e+05
-1.862689e+05 -1.090216e+05 -1.300853e+05
-2.320091e+05 -9.723020e+04 -1.490185e+04
-2.317831e+05 -9.876309e+04 -5.143394e+03
-2.303839e+05 -1.021138e+05 1.511048e+02
-2.317269e+05 -9.590041e+04 -2.469355e+04
-2.308733e+05 -9.904767e+04 -1.977616e+04
-1.976750e+05 -1.166134e+05 1.040669e+05
-2.022108e+05 -1.146800e+05 9.727935e+04
-2.311288e+05 -1.003109e+05 4.605824e+03
-2.280505e+05 -1.053574e+05 1.991899e+04
-2.186626e+05 -1.033364e+05 -7.079720e+04
-2.142469e+05 -1.065655e+05 -7.903216e+04
-2.099710e+05 -1.110319e+05 -8.419081e+04
-2.095488e+05 -1.094704e+05 -8.723256e+04
-2.147133e+05 -1.079343e+05 -7.584458e+04
-2.191221e+05 -1.046294e+05 -6.739565e+04
-2.176477e+05 -1.129559e+05 5.808991e+04
-2.210490e+05 -1.092356e+05 5.204721e+04
-2.261629e+05 -1.071170e+05 2.966994e+04
-2.101696e+05 -1.160641e+05 7.656279e+04
-2.141540e+05 -1.127292e+05 7.024371e+04
-2.019446e+05 -1.170837e+05 9.494104e+04
-1.727410e+05 -1.015164e+05 -1.528365e+05
-1.775112e+05 -1.025272e+05 -1.465672e+05
-1.677508e+05 -9.769741e+04 -1.606825e+05
-1.680199e+05 -9.487947e+04 -1.620839e+05
-1.730459e+05 -9.853601e+04 -1.544337e+05
-2.050322e+05 -1.135188e+05 -9.262433e+04
-1.492634e+05 -1.000411e+05 -1.766811e+05
-1.525565e+05 -9.868447e+04 -1.746193e+05
-1.498592e+05 -9.755086e+04 -1.775671e+05
-1.620494e+05 -9.622485e+04 -1.672865e+05
-1.530681e+05 -9.621477e+04 -1.755473e+05
-1.571731e+05 -9.472374e+04 -1.727079e+05
-1.567883e+05 -9.718321e+04 -1.716883e+05
-1.623097e+05 -9.367581e+04 -1.684767e+05
-1.772447e+05 -1.055256e+05 -1.447504e+05
-1.906373e+05 -1.139796e+05 -1.190382e+05
-1.473598e+05 -9.861778e+04 -1.790632e+05
-2.209161e+05 -1.110120e+05 4.874876e+04
-1.818952e+05 -1.060708e+05 -1.384454e+05
-1.816821e+05 -1.090408e+05 -1.364028e+05
-1.952227e+05 -1.125168e+05 -1.128365e+05
-2.103159e+05 -1.139617e+05 7.927137e+04
-2.063145e+05 -1.146473e+05 8.828541e+04
-2.061118e+05 -1.169079e+05 8.575811e+04
-1.811765e+05 -1.109420e+05 1.355395e+05
-2.047036e+05 -1.116596e+05 -9.556454e+04
-2.284853e+05 -1.035668e+05 2.392426e+04
-1.756795e+05 -1.055283e+05 1.466441e+05
-2.239750e+05 -1.072682e+05 4.281034e+04
-1.851579e+05 -1.098507e+05 1.309709e+05
-1.747979e+05 -1.079837e+05 1.459082e+05
-1.466678e+05 -1.011405e+05 -1.782222e+05
-2.264673e+05 -1.053495e+05 3.343725e+04
2.414403e+05 -7.215653e+04 2.005672e+03
2.411864e+05 -7.204854e+04 1.192233e+04
2.438820e+05 -6.306718e+04 6.934434e+03
-1.864231e+05 4.314375e+04 1.639788e+05
-1.808560e+05 5.191504e+04 1.676304e+05
-1.928977e+05 4.384311e+04 1.561161e+05
-1.980853e+05 4.562256e+04 1.489456e+05
-9.303316e+04 -2.240282e+05 -6.826571e+04
-1.874467e+05 5.266319e+04 1.599823e+05
-9.136348e+04 1.846555e+04 -2.341276e+05
-8.272440e+04 8.751891e+03 -2.378741e+05
-8.153605e+04 1.959524e+04 -2.376382e+05
-1.607839e+04 -1.003407e+05 2.306019e+05
-6.562188e+03 -9.565442e+04 2.330476e+05
-6.730395e+03 -1.054640e+05 2.287707e+05
-1.790375e+05 4.367104e+04 1.718790e+05
-1.155395e+05 -2.025394e+05 -9.556369e+04
-1.062814e+05 -2.047100e+05 -1.014992e+05
-1.392367e+05 -8.000066e+04 -1.942087e+05
7.920556e+04 1.881168e+05 1.477922e+05
6.824287e+04 1.910080e+05 1.495422e+05
7.372926e+04 1.956646e+05 1.406533e+05
8.275639e+04 1.933034e+05 1.388855e+05
2.414084e+05 -3.187223e+04 -6.488558e+04
2.436079e+05 -3.280743e+04 -5.552343e+04
2.385964e+05 -4.068018e+04 -7.014901e+04
8.835174e+04 -2.138650e+05 9.979839e+04
2.448631e+05 -1.350779e+04 5.799640e+04
2.231636e+05 1.164469e+05 1.192228e+04
2.181306e+05 1.255197e+05 1.295546e+04
-5.219625e+04 1.545037e+05 -1.921150e+05
-5.719716e+04 1.593392e+05 -1.866641e+05
-5.790772e+04 1.520634e+05 -1.924251e+05
4.614643e+04 -1.962561e+04 -2.469602e+05
4.661986e+04 -8.664190e+03 -2.474985e+05
-2.371157e+05 8.115433e+04 2.634599e+04
-2.387456e+05 7.906883e+04 1.589504e+04
-2.350246e+05 8.904360e+04 1.840258e+04
-2.364189e+05 8.681965e+04 8.510929e+03
-1.755446e+05 7.038543e+04 1.665353e+05
-1.685437e+05 1.683194e+05 8.225311e+04
-1.606632e+05 1.760679e+05 8.180112e+04
-4.745937e+03 -1.569295e+05 -1.971157e+05
-1.239776e+04 -1.614768e+05 -1.930687e+05
-3.518521e+04 -1.382343e+05 -2.077433e+05
-3.232782e+04 -1.291140e+05 -2.139824e+05
1.118821e+05 -2.227495e+05 3.700091e+04
1.032478e+05 -2.275253e+05 3.280460e+04
1.131660e+05 -2.198929e+05 4.842077e+04
1.045259e+05 -2.249306e+05 4.454835e+04
2.106309e+05 -5.905369e+04 1.251051e+05
2.053703e+05 -6.697718e+04 1.297733e+05
2.099441e+05 -6.892238e+04 1.211495e+05
2.044767e+05 -7.677712e+04 1.256923e+05
-3.972574e+03 2.349713e+05 9.097645e+04
-1.527407e+03 2.310927e+05 1.004879e+05
-1.103841e+04 2.315808e+05 9.875457e+04
2.026301e+05 8.361117e+04 -1.243149e+05
1.883519e+05 -1.503591e+05 -7.361866e+04
1.901775e+05 -1.520086e+05 -6.503773e+04
-2.473893e+04 2.405111e+05 -7.103788e+04
1.822922e+04 -2.348722e+05 -8.948043e+04
2.739139e+04 -2.342920e+05 -8.866214e+04
9.822569e+04 2.932543e+04 2.302080e+05
2.291914e+05 7.610951e+04 -7.199053e+04
-2.630427e+04 2.384220e+05 7.724645e+04
-3.279832e+04 2.346940e+05 8.571466e+04
2.403477e+05 7.129426e+04 -2.557593e+04
2.378402e+05 8.058918e+04 -2.101003e+04
2.369312e+05 8.097853e+04 -2.846224e+04
2.159068e+05 1.056066e+05 7.573319e+04
-9.340347e+03 2.272753e+05 1.084560e+05
-1.973649e+04 2.282279e+05 1.050071e+05
-1.793661e+05 -1.169136e+05 1.329022e+05
1.223590e+05 1.702881e+05 -1.397650e+05
1.128535e+05 1.778404e+05 -1.383506e+05
1.293817e+05 1.722870e+05 -1.306964e+05
1.208958e+05 1.779586e+05 -1.312209e+05
-4.061213e+04 2.308740e+05 9.247625e+04
6.995742e+04 -1.206220e+05 2.099054e+05
1.181377e+05 2.051919e+05 8.627731e+04
-7.607099e+04 -1.528924e+05 -1.853135e+05
2.457846e+05 -2.378558e+04 -5.028121e+04
1.166028e+04 -5.556631e+04 2.455207e+05
1.119749e+04 -4.524070e+04 2.476528e+05
2.067691e+04 -4.948695e+04 2.462265e+05
2.104031e+04 -5.979046e+04 2.438984e+05
-7.669779e+03 -1.753919e+05 -1.807840e+05
2.204615e+05 9.596684e+04 7.543940e+04
2.175836e+05 9.716900e+04 8.197306e+04
-8.326397e+04 2.221654e+05 -8.493317e+04
-8.184060e+04 2.262328e+05 -7.499898e+04
1.292535e+05 -7.533721e+04 2.027852e+05
8.758936e+04 1.009912e+05 -2.136185e+05
-1.349651e+05 -2.080499e+05 4.476246e+04
-1.283880e+05 -2.101313e+05 5.352900e+04
-9.827706e+04 4.456866e+04 -2.277263e+05
-9.618318e+04 3.466963e+04 -2.303276e+05
-8.972508e+04 3.913142e+04 -2.322114e+05
9.020502e+04 9.141059e+04 -2.168206e+05
9.853605e+04 9.474835e+04 -2.117012e+05
1.212840e+05 -1.585441e+05 -1.538114e+05
1.182443e+05 -1.713463e+05 -1.419956e+05
1.244510e+05 -1.635334e+05 -1.458519e+05
1.088747e+05 -1.741102e+05 -1.460682e+05
1.303319e+05 1.127444e+05 -1.838649e+05
2.007292e+05 -1.162625e+05 9.846236e+04
1.151660e+05 -1.664916e+05 -1.500711e+05
1.878288e+05 -1.002465e+05 -1.348146e+05
1.925888e+05 -1.022708e+05 -1.263101e+05
5.917015e+04 2.427668e+05 -3.266772e+04
2.299626e+05 9.962138e+04 -2.639677e+04
1.104421e+05 -1.456367e+05 1.734834e+05
1.072314e+05 -1.366185e+05 1.825947e+05
5.205395e+04 2.453222e+05 -2.472690e+04
2.293868e+05 -6.703032e+04 7.995400e+04
2.304634e+05 -5.736055e+04 8.426390e+04
2.023960e+05 -1.267302e+05 -8.049407e+04
2.148463e+05 6.496952e+04 1.145601e+05
2.104966e+05 6.683036e+04 1.213626e+05
1.982924e+05 8.915823e+04 1.274163e+05
1.936152e+05 9.853388e+04 1.277037e+05
-2.444596e+05 2.148977e+04 5.728621e+04
-2.421238e+05 3.395709e+04 6.104894e+04
-2.416442e+05 2.529726e+04 6.687393e+04
2.498904e+05 1.339798e+04 -2.965292e+04
-2.172378e+05 -1.277174e+05 -1.129334e+02
-2.430955e+05 -5.975673e+04 2.894288e+04
-2.456882e+05 -4.993431e+04 2.545381e+04
-2.439051e+05 -5.196217e+04 3.625209e+04
-7.785888e+04 2.334886e+05 -5.408381e+04
-7.553163e+04 2.364119e+05 -4.368488e+04
-8.653031e+04 2.318999e+05 -4.731762e+04
1.371897e+05 -5.834541e+04 2.031718e+05
1.369905e+05 -6.844609e+04 2.001318e+05
1.295849e+05 -6.530045e+04 2.060282e+05
-1.143082e+05 2.128603e+05 -7.161091e+04
-2.482279e+05 -2.422395e+04 3.605717e+04
-2.496032e+05 -1.427387e+04 3.159894e+04
-1.235943e+05 7.692460e+04 2.056965e+05
8.862032e+04 -2.227902e+05 7.755620e+04
8.855322e+04 -2.257094e+05 6.868458e+04
7.019679e+04 -2.370778e+05 -4.868826e+04
6.620880e+04 -2.356097e+05 -6.007055e+04
6.032386e+04 -2.390234e+05 -5.227642e+04
-1.492564e+05 -1.523807e+05 -1.341889e+05
-1.470119e+05 -1.603625e+05 -1.271825e+05
-5.229201e+04 2.439934e+05 -3.516750e+04
-4.778586e+04 2.461731e+05 -2.488561e+04
-6.116381e+04 2.426589e+05 -2.965886e+04
3.008702e+04 2.225688e+05 -1.142887e+05
2.328901e+04 2.261149e+05 -1.087827e+05
-9.096124e+04 2.002395e+05 1.230211e+05
-8.867237e+04 2.065077e+05 1.139991e+05
-8.262203e+04 2.040073e+05 1.227136e+05
1.662017e+05 -1.715235e+05 -8.037841e+04
1.797777e+05 4.290969e+03 1.765377e+05
[...]
POINT_DATA 8878
VECTORS displacement double
0.297742 0.206341 -0.219260
0.264342 0.213043 -0.215565
0.301188 0.210372 -0.215412
0.337493 0.202048 -0.218979
0.658383 -0.056842 -0.199187
0.659843 -0.066051 -0.195151
0.676647 -0.047326 -0.194484
0.671499 -0.037346 -0.199597
0.605389 0.096531 -0.218778
0.636096 -0.074765 -0.201147
0.634493 -0.082988 -0.198092
0.407246 -0.145983 -0.223041
0.406026 -0.151290 -0.219563
0.368553 -0.155513 -0.221847
0.334702 0.197675 -0.222835
0.373680 0.192575 -0.221745
0.514604 0.141581 -0.226287
0.548336 0.133591 -0.221133
0.606051 -0.090707 -0.205139
0.602627 -0.097803 -0.202645
0.676024 0.002616 -0.204530
0.243765 0.221287 -0.208806
0.217933 0.220805 -0.209743
0.202190 0.222939 -0.207744
0.223803 0.224383 -0.206296
0.208551 0.226436 -0.204386
0.660924 0.041914 -0.210143
0.665926 0.050323 -0.206976
0.297602 -0.174247 -0.214730
0.332750 -0.170235 -0.214896
0.298792 -0.179064 -0.210347
0.687266 -0.007838 -0.198564
0.684431 0.011879 -0.201491
0.670646 0.022474 -0.207408
0.685141 -0.027677 -0.195984
0.676847 -0.017417 -0.201762
0.371242 0.187999 -0.225500
0.409409 0.182464 -0.223648
0.677414 0.031398 -0.204242
0.646995 0.060621 -0.212970
0.566299 -0.110625 -0.207693
0.527278 -0.121813 -0.212589
0.489977 -0.126628 -0.219397
0.486681 -0.131977 -0.216793
0.531270 -0.115950 -0.215111
0.570343 -0.104189 -0.210059
0.547624 0.127599 -0.224289
0.579212 0.119103 -0.218669
0.628530 0.079161 -0.215837
0.479661 0.154387 -0.227681
0.515234 0.147081 -0.223095
0.407585 0.177668 -0.227300
0.199513 -0.198233 -0.195324
0.233674 -0.195621 -0.197960
0.164859 -0.204090 -0.188008
0.166714 -0.207928 -0.183676
0.201795 -0.202589 -0.190776
0.448469 -0.136627 -0.222229
0.044037 -0.192961 -0.185710
0.064475 -0.196917 -0.184912
0.047736 -0.196611 -0.182458
0.125981 -0.204635 -0.184333
0.067740 -0.200460 -0.181544
0.093967 -0.204649 -0.180652
0.091475 -0.201207 -0.184219
0.127713 -0.208211 -0.180554
0.231665 -0.191082 -0.202459
0.332280 -0.165081 -0.219062
0.032420 -0.193423 -0.183100
0.578204 0.112772 -0.221622
0.265957 -0.187636 -0.204572
0.264280 -0.182966 -0.209057
0.368434 -0.160831 -0.218034
0.480649 0.159645 -0.224319
0.445235 0.171440 -0.224477
0.443848 0.166484 -0.227999
0.238181 0.217677 -0.212339
0.445758 -0.141794 -0.219088
0.650706 0.068890 -0.209908
0.196328 0.227965 -0.202833
0.606661 0.103527 -0.215711
0.268863 0.216887 -0.211876
0.189980 0.224458 -0.206167
0.028208 -0.189607 -0.186251
0.630807 0.086781 -0.212660
0.772034 0.024680 0.156638
0.768367 0.045831 0.156637
0.795741 0.035544 0.137907
0.271641 0.295383 0.111715
0.228055 0.288373 0.130547
0.323431 0.292023 0.113759
0.366278 0.286632 0.117779
-0.244871 -0.004622 -0.196724
0.279290 0.286335 0.132484
-0.245369 -0.188123 0.053168
-0.276301 -0.177079 0.030813
-0.280863 -0.168616 0.055363
-0.450970 0.022515 -0.038689
-0.456202 0.017730 -0.018061
-0.455507 0.018230 -0.018369
0.214178 0.295463 0.112801
-0.145288 -0.034117 -0.229433
-0.187486 -0.030104 -0.215957
-0.015697 -0.209181 -0.153559
-0.331252 0.052807 -0.166825
-0.364932 0.042244 -0.145694
-0.348020 0.045362 -0.156991
-0.318576 0.053447 -0.173851
0.775567 -0.123756 0.069026
0.797353 -0.103975 0.070881
0.747914 -0.133021 0.088734
-0.280939 0.053124 0.187467
0.799990 0.150566 0.026650
0.587912 0.041926 -0.243550
0.541391 0.042530 -0.256454
-0.372926 -0.010872 0.125210
-0.362472 -0.014232 0.135324
-0.359645 -0.017878 0.136113
-0.374370 -0.093461 0.033692
-0.373665 -0.100104 0.011446
0.729685 0.076957 0.194479
0.746682 0.055495 0.190690
0.709431 0.059667 0.209827
0.723713 0.039587 0.205643
0.187963 0.269333 0.166658
0.140999 0.110449 0.293331
0.086479 0.101374 0.291915
-0.416909 0.006211 -0.011529
-0.414183 0.005440 -0.029379
-0.391275 -0.011833 -0.078582
-0.395189 -0.011852 -0.071987
-0.177840 0.038819 0.230563
-0.215851 0.034720 0.216923
-0.172827 0.044977 0.231928
-0.211231 0.040015 0.218782
0.471557 0.252622 0.127419
0.426357 0.252304 0.143357
0.466542 0.241793 0.147455
0.419172 0.240797 0.162328
-0.457051 0.016098 0.018061
-0.458145 0.015319 0.012419
-0.454885 0.016443 0.035206
0.418170 -0.195099 -0.184083
0.305935 -0.081642 0.269968
0.319833 -0.070317 0.272862
-0.430808 0.020998 0.067085
-0.418244 0.015845 0.042211
-0.410024 0.014403 0.063044
-0.261745 0.203308 -0.071225
0.653367 -0.124260 -0.172387
-0.441552 0.019335 0.071058
-0.434060 0.020430 0.086438
0.758457 -0.034233 -0.163159
0.732565 -0.023490 -0.181685
0.724191 -0.038818 -0.182313
0.516588 0.153556 -0.224198
-0.456580 0.015419 0.031550
-0.449847 0.017060 0.055524
0.224985 0.208841 -0.220294
-0.125995 -0.070365 -0.231413
-0.172806 -0.055228 -0.221430
-0.090269 -0.071962 -0.240956
-0.134403 -0.060310 -0.232379
-0.422387 0.022390 0.104326
-0.353447 0.084494 0.135714
-0.166973 0.062842 -0.236521
-0.297154 -0.050514 -0.155647
0.818726 -0.093798 0.050665
-0.456739 0.018027 0.021207
-0.457642 0.017439 0.019150
-0.451119 0.028750 0.037179
-0.450351 0.027625 0.039818
-0.416970 0.008117 -0.018631
0.558225 0.159018 -0.208475
0.531590 0.168261 -0.210102
-0.296579 -0.000817 0.193908
-0.302532 0.002806 0.191907
-0.109598 0.222885 0.144803
-0.267198 -0.095249 -0.155852
-0.055337 0.053971 -0.259533
-0.092533 0.056477 -0.251154
-0.219681 -0.179464 0.106379
-0.227576 -0.184563 0.087555
-0.252765 -0.168315 0.095009
-0.257100 -0.109396 -0.151746
-0.225242 -0.121082 -0.161193
-0.117851 -0.091503 0.220761
-0.133653 -0.074265 0.223402
-0.102548 -0.087528 0.227036
-0.177282 -0.064153 0.211775
-0.078135 -0.148002 -0.201029
0.391237 0.178126 0.229680
-0.147931 -0.077517 0.217266
0.305294 -0.190699 0.201245
0.342225 -0.182238 0.205674
-0.375838 0.017426 -0.128428
0.655621 -0.030889 -0.216329
-0.198015 0.125676 0.200280
-0.213649 0.129610 0.191335
-0.392607 0.018934 -0.112990
0.647351 0.182489 0.144954
0.656873 0.193671 0.124805
0.419885 -0.108939 0.246217
0.505535 0.233960 -0.149150
0.466453 0.240714 -0.152784
0.361505 0.227820 -0.193155
0.322736 0.218342 -0.208112
0.802930 0.152000 0.063836
0.778630 0.158211 0.092628
0.773382 0.171590 0.072843
0.858032 -0.048003 -0.035776
0.549204 0.021895 -0.247564
0.792972 0.086261 -0.123734
0.819388 0.079833 -0.102195
0.800449 0.103223 -0.106395
-0.317687 0.009900 0.184400
-0.326042 0.012722 0.180051
-0.288408 0.008806 0.201805
-0.066032 0.249721 0.118274
-0.066682 0.240188 0.135687
-0.108339 0.233097 0.128847
-0.168719 -0.013762 0.248183
0.844279 0.105549 -0.043417
0.858792 0.095663 -0.020025
-0.140376 0.212340 0.166011
-0.277419 0.045749 0.189372
-0.277134 0.042695 0.189907
-0.327320 0.010552 0.155490
-0.337477 0.008792 0.147592
-0.353305 0.011985 0.135210
0.041839 -0.115998 -0.241784
0.027880 -0.102937 -0.246327
-0.389292 0.018173 0.130274
-0.400074 0.019501 0.120474
-0.368791 0.017517 0.149757
-0.421529 0.018686 -0.063086
-0.429630 0.020349 -0.047299
-0.284715 0.058286 0.206128
-0.292865 0.052856 0.203020
-0.314937 0.050566 0.191457
0.144143 -0.067435 0.274682
0.214758 0.306152 -0.015770
-0.423712 0.015240 0.017432
-0.421112 0.012038 0.032777
0.464859 -0.240711 -0.092611
-0.286174 -0.089682 -0.144722
-0.288127 -0.096600 -0.138502
-0.258935 -0.108967 -0.148935
-0.408453 0.019995 -0.095935
-0.415314 0.019926 -0.086287
0.501987 0.030401 -0.266425
0.491334 0.051312 -0.266481
-0.186664 0.030549 -0.224500
-0.411412 0.120045 -0.015034
-0.388560 0.143835 -0.005669
-0.462378 -0.006408 -0.005763
-0.460012 0.003987 -0.023183
-0.458666 0.014967 -0.024633
-0.453413 0.029814 -0.036958
-0.415953 0.000267 -0.015553
-0.414297 -0.001468 0.027949
0.378567 0.113996 0.284693
0.814895 -0.063807 -0.094654
0.817812 -0.080177 -0.075889
-0.440861 0.040483 0.056326
-0.449439 0.026826 0.041381
0.701600 -0.087477 0.188674
-0.282092 0.063067 -0.191223
-0.303120 0.054818 -0.182057
-0.269851 0.062044 -0.197084
-0.411618 0.048659 -0.098261
-0.392658 0.058206 -0.115882
-0.312736 0.004299 -0.160222
-0.456795 0.016164 -0.005786
0.179053 0.311219 0.046464
0.218755 0.307962 0.069892
0.161253 0.306405 0.071032
0.081530 -0.039252 -0.281062
0.112874 -0.031921 -0.285341
0.051022 -0.028346 -0.279789
0.315270 0.242895 -0.180538
0.275927 0.241921 -0.185487
0.309630 0.231332 -0.195170
0.045027 0.001870 0.297904
0.015644 0.011935 0.294545
-0.110275 0.037999 -0.254608
-0.070388 0.035595 -0.263933
0.324995 -0.239002 -0.138044
0.855515 0.079086 0.077835
0.836153 0.091411 0.097648
0.834789 0.109898 0.080262
0.069045 0.181546 -0.232873
-0.414025 0.017177 -0.077003
-0.403637 0.015417 -0.092296
-0.362882 -0.052973 0.098988
-0.456507 0.016811 0.001004
-0.453319 0.017032 -0.022141
-0.457345 0.015142 -0.006321
-0.458584 0.014617 0.007669
-0.448735 0.017859 -0.038260
-0.271476 0.000733 0.208611
-0.236530 -0.004237 0.223945
-0.349213 0.024346 -0.152883
-0.342032 0.026190 -0.158364
-0.233848 0.181972 -0.141977
-0.273462 0.160583 -0.139767
-0.250072 0.163435 -0.151541
-0.282498 0.199362 0.080248
-0.456177 0.010369 -0.035806
-0.460655 0.008503 -0.015581
-0.456679 0.010676 -0.033099
0.183541 -0.038912 -0.287648
0.151067 -0.025657 -0.288917
-0.206576 -0.115759 -0.172317
-0.239401 -0.102275 -0.164514
-0.218128 -0.117438 -0.165419
-0.445900 0.016847 0.074412
-0.455441 0.009869 0.054280
-0.408926 0.027179 0.122399
-0.392016 0.031091 0.138328
-0.429923 0.024133 0.049668
-0.436200 0.023281 0.027578
0.255951 0.002126 0.289298
0.310528 0.004291 0.286963
0.268573 0.021881 0.289392
0.317892 0.014302 0.286867
-0.397678 0.020248 0.092311
-0.404856 0.020990 0.082686
-0.101693 0.265836 -0.072241
-0.450182 0.018249 -0.031151
-0.416187 0.006173 0.051313
0.468451 -0.248790 -0.067937
0.426272 -0.258599 -0.057805
-0.461758 0.004396 0.030529
0.436646 -0.264686 0.029901
0.450179 -0.263111 0.003144
-0.443370 0.020473 0.057853
0.838103 0.110557 0.030161
-0.420694 0.012412 0.008307
-0.418961 0.012434 0.026732
-0.417510 0.011434 0.030870
0.821487 0.121456 0.051491
-0.195766 -0.019893 0.218241
-0.235301 -0.014988 0.202500
-0.231133 0.015878 -0.214869
-0.275406 0.015752 -0.194751
-0.263367 0.018759 -0.201008
-0.198865 0.012092 -0.227259
0.511493 -0.245197 -0.047031
-0.336623 -0.001233 -0.140960
-0.360363 0.002581 -0.121162
-0.276441 0.081965 -0.184747
-0.306248 0.075344 -0.171443
-0.311352 0.069261 -0.169376
-0.451725 0.022817 -0.039053
0.448463 0.001720 -0.276026
0.459260 0.020361 -0.274663
0.495270 0.008949 -0.267791
0.681436 -0.197345 -0.005870
0.335456 0.271754 -0.137296
0.381924 0.276314 -0.118789
-0.462315 0.003115 0.027162
-0.456048 0.008605 0.051602
-0.451681 0.020228 0.017610
-0.450825 0.019858 0.031235
-0.323267 0.017618 -0.168099
0.327963 -0.227331 -0.157141
0.374949 -0.231249 -0.142766
0.157206 -0.183433 -0.212480
0.213865 -0.191035 -0.207641
0.197954 -0.179463 -0.217632
-0.444305 0.017366 -0.065742
-0.447289 0.014583 -0.060158
-0.433580 0.024956 -0.081664
0.744086 -0.043966 0.185262
-0.137013 0.043533 0.242838
-0.130598 0.024971 0.264827
-0.438856 0.077343 0.036675
-0.424029 0.103651 0.026475
-0.425328 0.092784 0.050286
0.096101 -0.255767 -0.099744
0.127687 -0.144194 -0.241013
-0.054982 0.042371 -0.266828
-0.442437 0.024270 -0.067459
-0.431935 0.033696 -0.081708
-0.383792 0.019421 -0.122186
0.188270 -0.209361 0.201088
-0.222021 0.057510 -0.218245
-0.208762 0.054693 -0.223646
-0.380402 -0.031586 -0.088019
-0.397461 -0.018243 -0.066911
0.567323 0.133667 0.238169
0.182813 0.256472 0.186021
0.169135 0.081261 0.302785
0.136927 0.068788 0.303241
0.106147 0.075261 0.300254
0.472995 0.283257 -0.029851
0.517069 0.274726 -0.025106
-0.386403 0.015144 -0.098693
-0.388889 0.013931 -0.094315
-0.407851 0.016092 -0.066432
-0.423728 0.016653 0.020113
-0.249518 0.067426 0.220534
-0.258540 0.061023 0.217900
-0.395581 0.024905 -0.116795
-0.382123 0.027223 -0.129792
-0.176133 0.256349 0.012485
-0.147002 0.263429 0.034597
-0.183517 0.251661 0.037825
-0.409505 0.015658 -0.082426
0.739411 -0.106530 0.150847
-0.001200 -0.000222 -0.276293
0.025205 0.006852 -0.280735
-0.023611 0.128859 0.247382
-0.009983 0.122481 0.252704
-0.402213 0.021190 0.120849
-0.427731 0.020833 -0.075409
-0.427373 0.020555 -0.077217
-0.438724 0.019791 -0.056930
0.022966 -0.078925 -0.261823
0.054192 -0.075074 -0.267681
-0.411702 0.016710 0.094772
0.127361 -0.104345 -0.256697
0.115840 -0.089781 -0.262032
-0.276214 0.080471 0.184749
-0.259804 0.080036 0.192582
-0.298144 0.070683 0.176064
0.034595 0.292597 -0.068867
0.016398 0.295079 -0.046217
-0.015996 0.287052 -0.060503
0.072402 -0.097897 -0.254332
0.302677 0.040068 -0.291434
0.346409 0.050169 -0.287426
0.292902 0.054116 -0.290517
-0.385955 0.003186 -0.104725
-0.392999 0.007141 -0.098115
-0.436412 0.020164 0.077399
-0.428297 0.021041 0.092619
-0.420592 0.022013 0.102768
-0.037041 0.038459 0.286094
-0.009703 0.046223 0.290291
-0.463105 -0.003128 0.012863
-0.317906 0.004874 0.160853
0.565336 -0.126387 -0.206334
0.793585 0.047213 -0.136708
0.801383 0.023104 -0.132904
-0.338044 0.154152 -0.092045
-0.434101 0.027835 -0.060070
0.138213 -0.209180 -0.183613
0.193913 0.010459 -0.294030
0.195439 0.018924 -0.294071
-0.416167 -0.003110 -0.013374
-0.452077 0.020169 0.020935
-0.453650 0.018977 -0.000096
-0.454374 0.018372 0.001455
-0.404452 0.032055 -0.113780
-0.428250 0.022238 -0.086689
-0.409852 0.028552 -0.107802
-0.370982 0.014813 0.119675
-0.099348 0.218799 0.175876
-0.148341 0.198839 0.179816
0.807946 0.082993 0.135628
-0.453669 0.019307 0.023822
-0.456066 0.017400 0.002877
-0.456839 0.016795 0.003205
-0.420301 0.015580 0.032443
0.618127 -0.198562 -0.091534
0.642850 -0.198932 -0.068705
0.579198 0.185192 0.198354
0.535533 0.196110 0.203625
-0.336179 0.037646 -0.164066
0.861542 -0.060578 -0.008047
0.871766 -0.045234 0.012327
-0.257154 0.042458 0.220844
-0.296943 0.038155 0.201776
-0.280936 0.042581 0.209547
-0.421795 0.013450 0.004396
0.006546 -0.126980 0.232143
-0.021432 -0.112116 0.235351
-0.004097 -0.106129 0.241564
-0.286740 -0.022042 -0.178936
-0.252231 -0.029149 -0.195512
-0.278751 -0.020312 -0.184025
-0.315000 0.048172 0.169792
-0.344273 0.041865 0.150972
-0.343927 0.043768 0.151496
0.282885 0.265595 0.171351
-0.438726 0.032591 0.060792
-0.438698 0.031337 0.060616
-0.447498 0.024381 0.042966
-0.447765 0.025030 0.043516
0.762589 0.092252 -0.144280
0.780271 0.069688 -0.140539
-0.425369 0.043657 -0.086745
0.110879 -0.075475 0.269932
0.577730 0.167532 0.213287
-0.456319 0.011439 0.048239
-0.449316 0.014593 0.065743
-0.439113 0.019139 0.085546
-0.448520 0.014571 0.068073
-0.330707 -0.004488 -0.144908
-0.440649 0.018366 0.082510
0.590761 0.225047 0.118277
0.046975 0.260502 -0.146907
-0.010630 0.238477 -0.164847
-0.209626 0.012964 -0.215001
-0.203971 0.016083 -0.217334
-0.165571 0.013555 -0.230822
-0.370976 0.087606 0.136071
0.042069 0.248890 -0.163335
0.090109 -0.263271 0.092592
0.083518 0.246169 -0.174356
-0.182841 -0.043166 0.216994
-0.317337 0.037546 0.190759
-0.338130 0.036324 0.178060
-0.437833 0.042447 0.079373
-0.446548 0.026096 0.069729
0.852845 -0.016442 -0.074333
0.833630 -0.031801 -0.092710
0.841937 -0.000437 -0.092636
-0.303497 -0.008431 -0.163232
-0.277273 -0.015843 -0.177486
0.773489 0.031595 -0.153090
-0.454192 0.017447 -0.015534
-0.193601 0.173363 0.166295
-0.228143 0.163790 0.157711
0.750530 -0.120538 -0.109285
-0.452720 0.019481 -0.003748
-0.454277 0.018894 0.009859
-0.337052 0.047354 0.178667
-0.188431 0.223380 0.096514
-0.067861 -0.052739 0.249098
0.869704 -0.029268 0.010339
0.612898 0.191692 -0.157299
0.608124 0.177210 -0.174579
-0.357648 0.006397 0.129271
-0.331483 0.003234 0.150169
-0.310501 0.042386 0.172030
-0.311321 -0.013259 -0.166363
-0.298279 -0.013203 -0.174538
-0.331102 -0.006267 -0.154689
-0.345069 0.002586 0.139203
-0.289684 0.010691 0.179785
-0.316004 0.013935 0.164420
0.877148 0.014047 0.011139
-0.454121 0.029076 -0.036909
-0.459017 0.017437 -0.021037
-0.460578 0.012178 -0.001677
-0.403299 -0.035289 -0.047593
0.410973 0.288464 -0.059105
-0.458537 0.016743 -0.020786
-0.039929 0.104291 0.254079
-0.049273 0.110302 0.250115
-0.379412 -0.043540 0.097179
-0.358201 -0.068813 0.106701
-0.318338 -0.032328 -0.154067
-0.320233 -0.027785 -0.154574
0.622061 0.244141 0.031707
0.702636 -0.013428 -0.199125
0.663455 -0.017799 -0.215911
0.695774 -0.027804 -0.199581
-0.288363 -0.038882 -0.171813
-0.311125 0.029972 0.193653
-0.438574 0.019135 -0.061068
0.491492 -0.188940 0.168266
-0.344803 -0.010569 0.154964
0.492835 -0.149655 0.205851
0.442546 -0.149257 0.217413
-0.335695 0.029870 0.179179
-0.395205 0.133768 -0.031335
-0.368629 0.158480 -0.022301
0.706835 0.030696 -0.198999
0.703302 0.045159 -0.199054
0.667245 0.037375 -0.215998
-0.438285 0.022914 0.006666
-0.218672 -0.027797 -0.203745
-0.188034 -0.037564 -0.213835
-0.177178 -0.025432 -0.220670
0.640449 0.141179 0.184751
0.617126 0.158436 0.182418
0.862821 -0.008434 0.055181
-0.187524 0.215092 0.114532
-0.187380 0.205434 0.130283
-0.120396 -0.236688 0.042118
-0.149217 0.214921 0.137707
0.618281 0.046895 -0.225544
0.603060 0.064520 -0.227873
0.572722 0.050624 -0.239194
-0.428983 0.021304 -0.019332
-0.351268 0.091246 0.133610
0.194033 0.249740 0.172963
0.143820 0.239831 0.183312
0.150704 0.252054 0.167509
0.082054 0.140358 0.257168
0.028765 0.134807 0.253214
-0.031772 0.145633 0.237608
-0.032962 0.137135 0.241471
-0.072077 0.133824 0.234942
-0.420076 0.020458 0.051895
-0.409495 0.019412 0.073103
-0.418191 0.019549 0.055059
0.545381 -0.199636 0.133096
0.586927 -0.196506 0.116195
0.574665 0.202437 0.158478
0.605583 0.187037 0.161526
-0.439317 0.029633 -0.060559
-0.425346 0.020112 0.034351
0.443443 -0.188272 0.182224
-0.372005 0.025908 -0.136968
-0.350215 0.028816 -0.153767
-0.372724 0.027418 -0.137031
-0.101925 0.099925 -0.245175
-0.145376 0.087678 -0.236984
-0.292604 0.177417 0.091237
-0.099498 0.092833 -0.247996
-0.110775 0.105757 -0.240938
-0.110730 -0.136021 -0.195626
-0.108138 -0.130526 -0.200401
-0.129354 -0.126747 -0.195812
0.529299 0.204932 0.173659
-0.121326 -0.011321 0.244458
-0.146675 -0.014580 0.236505
-0.168721 -0.007495 0.230397
-0.309892 0.006566 0.188227
-0.107774 -0.006948 0.248689
-0.460162 0.019545 -0.001670
-0.455098 0.039892 0.006754
-0.156347 -0.003782 0.234906
0.758132 0.129749 0.147154
-0.351835 0.066107 0.163628
-0.329579 0.073394 0.176437
0.184730 -0.279621 0.041907
-0.127531 0.176363 0.190532
0.154023 0.280197 -0.128991
0.202148 0.277065 -0.137352
0.151199 0.269964 -0.147111
-0.084317 -0.142208 -0.199492
-0.071223 -0.138268 -0.205936
-0.105648 -0.123448 -0.205734
-0.049413 0.107117 0.270310
-0.075627 0.095251 0.268710
-0.104212 0.097097 0.261031
0.444297 0.205677 -0.200812
0.198129 0.266329 -0.154835
-0.158999 -0.216235 0.077896
-0.178963 -0.214407 0.059605
-0.210756 -0.198935 0.070212
-0.448224 0.023614 -0.040924
-0.455062 0.014222 0.046397
-0.460192 0.012174 0.019865
-0.458582 0.013324 0.029191
-0.031121 0.223225 0.172965
-0.460214 0.012751 0.002784
-0.461550 -0.002162 -0.016072
0.645041 0.152378 -0.174623
0.613620 0.167271 -0.177487
-0.237991 -0.192062 -0.042029
-0.211390 -0.206346 -0.026977
0.621268 0.182083 -0.161137
-0.410734 0.008540 0.076140
-0.398368 0.001732 0.096157
0.496646 -0.123979 0.241487
-0.334648 0.070993 -0.155736
-0.335540 0.067393 -0.155874
0.271007 -0.254976 -0.111072
0.321411 -0.250139 -0.116155
0.274901 -0.244804 -0.132922
-0.430093 0.020522 -0.074155
0.177140 -0.139968 0.260625
-0.441241 0.019156 -0.054687
-0.428429 0.020644 -0.078065
0.334820 -0.228823 0.150460
0.484487 -0.252850 -0.008605
0.436078 0.232979 -0.172332
0.396236 0.237475 -0.175359
0.403491 0.224031 -0.190259
-0.324986 0.002204 0.176352
-0.330408 0.005341 0.173949
-0.149106 0.233662 0.104056
0.219093 -0.109203 0.261040
-0.462030 -0.002912 -0.013836
-0.463207 -0.005718 0.003574
-0.463114 -0.004614 0.008760
-0.191420 -0.010333 0.221681
-0.359201 0.008365 -0.124486
-0.381392 0.011368 -0.101907
0.034206 -0.234368 -0.128177
0.659558 -0.194252 0.056893
-0.417705 0.011673 0.057483
-0.418593 0.012889 0.057939
0.871916 -0.018218 -0.037248
0.225599 0.306313 0.008786
0.725773 0.179651 0.087563
0.723507 -0.161008 0.063640
0.720758 -0.169431 0.040334
0.692724 -0.178127 0.060443
-0.032411 0.025881 0.267901
-0.037646 0.017725 0.266878
-0.404592 0.001343 -0.057758
-0.409993 0.003732 -0.044543
-0.401629 -0.000793 -0.063406