# vtk DataFile Version 2.0
Simplicial Mesh Example
ASCII
DATASET UNSTRUCTURED_GRID
POINTS 9576 double
-1.233746e+04 -3.653060e+04 -2.489835e+05
-1.135582e+04 -3.558715e+04 -2.491763e+05
-1.250281e+04 -3.509066e+04 -2.491913e+05
-1.092068e+04 -3.419548e+04 -2.493832e+05
-3.063912e+04 -2.852440e+04 -2.484497e+05
-3.080408e+04 -2.719742e+04 -2.485898e+05
-2.922690e+04 -2.768800e+04 -2.487275e+05
-2.744826e+04 -2.947836e+04 -2.487330e+05
-2.611224e+04 -2.845943e+04 -2.489960e+05
-2.637420e+04 -2.714402e+04 -2.490993e+05
-2.795639e+04 -2.664826e+04 -2.489742e+05
-2.765975e+04 -2.818284e+04 -2.488528e+05
-5.802992e+04 -2.255995e+04 -2.441788e+05
-5.819171e+04 -2.119598e+04 -2.442647e+05
-5.632055e+04 -2.042785e+04 -2.447668e+05
-5.675955e+04 -2.145355e+04 -2.445786e+05
-5.764680e+04 -2.006971e+04 -2.444955e+05
-6.118283e+04 -2.169037e+04 -2.434902e+05
-5.909502e+04 -1.966443e+04 -2.441768e+05
-3.921988e+04 -2.416121e+04 -2.477233e+05
-3.759070e+04 -2.441142e+04 -2.479422e+05
-4.033491e+04 -2.635777e+04 -2.473129e+05
-3.869943e+04 -2.660876e+04 -2.475478e+05
-4.084906e+04 -2.391100e+04 -2.475045e+05
-5.007196e+04 -2.456566e+04 -2.457442e+05
-5.049023e+04 -2.192660e+04 -2.458994e+05
-4.890133e+04 -2.231784e+04 -2.461944e+05
-3.542847e+04 -2.711072e+04 -2.480176e+05
-3.382998e+04 -2.757044e+04 -2.481664e+05
-3.205095e+04 -2.686788e+04 -2.484739e+05
-3.270315e+04 -2.516205e+04 -2.485987e+05
-3.433234e+04 -2.491184e+04 -2.483798e+05
-2.026879e+04 -2.969289e+04 -2.493778e+05
-2.002750e+04 -3.132612e+04 -2.492007e+05
-2.437141e+04 -3.072969e+04 -2.489011e+05
-2.451188e+04 -2.908383e+04 -2.491059e+05
-2.321881e+04 -2.815832e+04 -2.493404e+05
-4.729833e+04 -2.266191e+04 -2.464686e+05
-4.845632e+04 -2.489153e+04 -2.460207e+05
-3.112076e+04 -2.565672e+04 -2.487241e+05
-3.223455e+04 -2.804742e+04 -2.483080e+05
-5.366805e+04 -2.114412e+04 -2.453093e+05
-5.644937e+04 -2.298849e+04 -2.445122e+05
-5.499430e+04 -2.078599e+04 -2.450381e+05
-2.479201e+04 -2.763979e+04 -2.492243e+05
-2.585477e+04 -2.996041e+04 -2.488727e+05
-2.140468e+04 -3.226825e+04 -2.489579e+05
-1.855762e+04 -3.209677e+04 -2.492186e+05
-1.992131e+04 -3.303753e+04 -2.489863e+05
-1.879378e+04 -3.046017e+04 -2.493966e+05
-1.731877e+04 -3.122746e+04 -2.494153e+05
-1.843795e+04 -3.380682e+04 -2.490147e+05
-1.719895e+04 -3.293953e+04 -2.492196e+05
-4.522504e+04 -2.554327e+04 -2.465739e+05
-4.568775e+04 -2.298057e+04 -2.467317e+05
-5.486166e+04 -2.339999e+04 -2.448321e+05
-5.621073e+03 -4.005124e+04 -2.486932e+05
-4.573551e+03 -3.715910e+04 -2.491834e+05
-6.785660e+03 -3.594008e+04 -2.493079e+05
3.013014e+04 -6.910702e+04 -2.404587e+05
2.797045e+04 -7.113076e+04 -2.401293e+05
2.548381e+04 -6.878317e+04 -2.410871e+05
2.765599e+04 -6.677177e+04 -2.414124e+05
-8.951216e+03 -3.502641e+04 -2.493474e+05
-9.262409e+03 -3.784003e+04 -2.489464e+05
-4.197039e+04 -2.610679e+04 -2.470779e+05
-2.904369e+04 -2.900138e+04 -2.485913e+05
-6.275490e+04 -2.124888e+04 -2.431343e+05
-6.080548e+04 -1.918576e+04 -2.438003e+05
-4.407717e+04 -2.329922e+04 -2.469948e+05
9.672555e+03 -5.064339e+04 -2.466473e+05
-1.563958e+03 -4.292456e+04 -2.482813e+05
-3.592516e+03 -4.148790e+04 -2.484873e+05
1.882375e+02 -4.063787e+04 -2.486631e+05
2.809387e+03 -4.275184e+04 -2.483185e+05
1.221230e+04 -5.301729e+04 -2.460158e+05
1.782227e+04 -6.183546e+04 -2.436350e+05
1.515679e+04 -5.960156e+04 -2.443540e+05
1.738488e+04 -5.763765e+04 -2.446769e+05
2.776751e+03 -4.730942e+04 -2.474550e+05
5.058173e+03 -4.542200e+04 -2.477729e+05
5.039007e+03 -4.999167e+04 -2.469075e+05
7.306959e+03 -4.809216e+04 -2.472273e+05
-5.326716e+04 -2.379533e+04 -2.451391e+05
-5.207914e+04 -2.153536e+04 -2.456043e+05
5.144963e+02 -4.462716e+04 -2.480024e+05
-3.596152e+04 -2.466163e+04 -2.481610e+05
-3.706395e+04 -2.685974e+04 -2.477827e+05
2.515880e+04 -6.444035e+04 -2.423141e+05
2.297311e+04 -6.643977e+04 -2.419909e+05
2.261297e+04 -6.213874e+04 -2.431532e+05
1.475204e+04 -5.539119e+04 -2.453842e+05
1.250806e+04 -5.734532e+04 -2.450609e+05
-2.288804e+04 -3.149897e+04 -2.489295e+05
-2.164825e+04 -3.063970e+04 -2.491514e+05
-2.174380e+04 -2.892561e+04 -2.493591e+05
-2.323003e+03 -3.880326e+04 -2.489374e+05
-7.649631e+03 -3.861457e+04 -2.488992e+05
2.041278e+04 -6.412689e+04 -2.428309e+05
2.003530e+04 -5.986003e+04 -2.439553e+05
-5.167266e+04 -2.419067e+04 -2.454461e+05
-4.246658e+04 -2.361787e+04 -2.472579e+05
-4.360587e+04 -2.585581e+04 -2.468430e+05
-1.434672e+04 -3.275000e+04 -2.494456e+05
-1.584376e+04 -3.199474e+04 -2.494340e+05
-1.563359e+04 -3.358045e+04 -2.492556e+05
-2.312817e+04 -2.987488e+04 -2.491227e+05
-1.271318e+04 -3.343920e+04 -2.494159e+05
-1.411066e+04 -3.438507e+04 -2.492138e+05
-1.387498e+04 -3.587589e+04 -2.490020e+05
9.964145e+03 -5.494919e+04 -2.456927e+05
-1.541251e+04 -3.522118e+04 -2.490206e+05
-4.684068e+04 -2.521740e+04 -2.462973e+05
-2.953857e+04 -2.615249e+04 -2.488492e+05
-1.695003e+04 -3.456647e+04 -2.490391e+05
-5.961047e+04 -2.213141e+04 -2.438453e+05
7.420233e+03 -5.255307e+04 -2.463244e+05
-1.079993e+04 -3.718531e+04 -2.489650e+05
1.495822e+04 -1.449321e+04 -2.510906e+05
1.539993e+04 -1.734304e+04 -2.508900e+05
2.825770e+04 -3.186891e+04 -2.483334e+05
2.781701e+04 -3.361868e+04 -2.481673e+05
2.895185e+04 -3.481219e+04 -2.478975e+05
2.928051e+04 -3.303862e+04 -2.480815e+05
3.093099e+04 -3.253610e+04 -2.479662e+05
3.037031e+04 -3.422003e+04 -2.477955e+05
3.825428e+04 -4.141124e+04 -2.455851e+05
3.662912e+04 -4.175228e+04 -2.457822e+05
3.317589e+04 -3.981035e+04 -2.465754e+05
3.456395e+04 -3.920769e+04 -2.464828e+05
3.350441e+04 -3.795594e+04 -2.468141e+05
3.518882e+04 -3.756156e+04 -2.466476e+05
4.209807e+04 -4.669660e+04 -2.440300e+05
4.068640e+04 -4.722709e+04 -2.441529e+05
4.171732e+04 -4.839214e+04 -2.437496e+05
4.003531e+04 -4.888664e+04 -2.439485e+05
8.988085e+03 -1.221757e+04 -2.515243e+05
3.907471e+04 -4.757969e+04 -2.443395e+05
1.349151e+04 -1.273577e+04 -2.512804e+05
1.152350e+04 -1.267725e+04 -2.513952e+05
4.116134e+04 -5.003754e+04 -2.435088e+05
4.284441e+04 -4.952638e+04 -2.433132e+05
4.322585e+04 -4.785960e+04 -2.435897e+05
2.634775e+04 -2.774326e+04 -2.490388e+05
2.492586e+04 -2.836640e+04 -2.491159e+05
2.601447e+04 -2.951791e+04 -2.488595e+05
2.440096e+04 -3.004637e+04 -2.489680e+05
1.571514e+04 -2.006298e+04 -2.506994e+05
1.739439e+04 -1.967583e+04 -2.506151e+05
1.756487e+04 -1.761657e+04 -2.507532e+05
1.631460e+04 -1.611846e+04 -2.509150e+05
1.429677e+04 -1.613873e+04 -2.510271e+05
1.306038e+04 -1.459487e+04 -2.511917e+05
1.251786e+04 -1.623235e+04 -2.511184e+05
1.358362e+04 -1.750922e+04 -2.509787e+05
2.213151e+04 -2.765632e+04 -2.494945e+05
2.271475e+04 -2.597819e+04 -2.496048e+05
2.407601e+04 -2.532543e+04 -2.495566e+05
2.381688e+04 -2.718451e+04 -2.493782e+05
3.921523e+04 -4.273258e+04 -2.451963e+05
3.763198e+04 -4.312466e+04 -2.453777e+05
3.874891e+04 -4.456942e+04 -2.449417e+05
1.145211e+04 -1.495547e+04 -2.512580e+05
3.211988e+04 -3.856081e+04 -2.469059e+05
3.412624e+04 -3.630385e+04 -2.469787e+05
3.106387e+04 -3.731127e+04 -2.472364e+05
3.246101e+04 -3.670257e+04 -2.471429e+05
3.140799e+04 -3.545491e+04 -2.474712e+05
5.589840e+04 -5.676971e+04 -2.390704e+05
5.378342e+04 -5.888983e+04 -2.390422e+05
5.380723e+04 -5.575881e+04 -2.397817e+05
5.183276e+04 -5.795033e+04 -2.396978e+05
3.423190e+04 -4.105990e+04 -2.462448e+05
3.000786e+04 -3.606173e+04 -2.475670e+05
3.621121e+04 -4.364156e+04 -2.455071e+05
2.704126e+04 -3.068424e+04 -2.486079e+05
5.062341e+04 -5.404188e+04 -2.408645e+05
4.985222e+04 -5.524630e+04 -2.407509e+05
5.206738e+04 -5.489310e+04 -2.403694e+05
5.002876e+04 -5.705076e+04 -2.402994e+05
3.716571e+04 -4.495427e+04 -2.451179e+05
4.509612e+04 -5.182840e+04 -2.424340e+05
4.453942e+04 -5.349023e+04 -2.421900e+05
4.622842e+04 -5.293333e+04 -2.419940e+05
4.791028e+04 -5.229810e+04 -2.418026e+05
4.747677e+04 -5.371475e+04 -2.415711e+05
5.817740e+04 -5.779827e+04 -2.382829e+05
5.605281e+04 -5.991611e+04 -2.382691e+05
-4.844380e+04 3.687166e+04 -2.445356e+05
-4.633777e+04 3.900463e+04 -2.446129e+05
-4.581169e+04 3.464403e+04 -2.453656e+05
-4.368860e+04 3.676275e+04 -2.454447e+05
2.863937e+04 -3.013968e+04 -2.485025e+05
1.464938e+04 -1.878610e+04 -2.508391e+05
3.625140e+04 -3.881927e+04 -2.463166e+05
3.561763e+04 -4.045977e+04 -2.461522e+05
1.785323e+04 -2.259629e+04 -2.503097e+05
1.844355e+04 -2.092360e+04 -2.504162e+05
1.977030e+04 -2.023363e+04 -2.503705e+05
1.951162e+04 -2.218741e+04 -2.502142e+05
4.436014e+04 -4.901642e+04 -2.431473e+05
3.306367e+04 -3.504614e+04 -2.473097e+05
4.017618e+04 -4.405392e+04 -2.448075e+05
1.629162e+04 -1.854579e+04 -2.507646e+05
-7.960906e+03 3.441620e+03 -2.518037e+05
-6.901974e+03 -3.631614e+02 -2.518799e+05
-5.383634e+03 2.076760e+03 -2.519005e+05
-1.088666e+04 4.991030e+03 -2.516938e+05
-1.130171e+04 1.967184e+03 -2.516971e+05
4.582768e+04 -5.443496e+04 -2.417339e+05
4.878107e+04 -5.455579e+04 -2.411217e+05
4.717601e+04 -5.530333e+04 -2.412716e+05
2.749356e+04 -2.894147e+04 -2.487707e+05
4.926685e+04 -5.316999e+04 -2.413335e+05
2.058154e+04 -2.345334e+04 -2.500115e+05
2.299958e+04 -2.405248e+04 -2.497601e+05
-1.666051e+04 9.083336e+03 -2.512394e+05
-1.614897e+04 4.983797e+03 -2.513964e+05
1.892280e+04 -2.386130e+04 -2.501059e+05
4.397044e+04 -5.067728e+04 -2.428736e+05
4.549443e+04 -5.017324e+04 -2.427050e+05
3.729334e+04 -4.008990e+04 -2.459738e+05
3.525671e+04 -4.232885e+04 -2.458963e+05
2.520194e+04 -2.654505e+04 -2.493070e+05
2.084673e+04 -2.150658e+04 -2.501671e+05
2.165067e+04 -2.471833e+04 -2.498077e+05
2.192316e+04 -2.277953e+04 -2.499636e+05
-2.194706e+04 1.379335e+04 -2.506223e+05
-1.950554e+04 1.122308e+04 -2.509871e+05
-2.180267e+04 9.237037e+03 -2.508832e+05
-2.671924e+04 1.904172e+04 -2.498421e+05
-3.118992e+04 1.973752e+04 -2.492434e+05
-2.893778e+04 1.704242e+04 -2.497371e+05
-1.897582e+04 7.110417e+03 -2.511398e+05
4.228737e+04 -5.118844e+04 -2.430692e+05
-3.598529e+04 2.966622e+04 -2.476348e+05
-1.381548e+04 6.943596e+03 -2.514916e+05
-2.434846e+04 1.640642e+04 -2.502462e+05
-2.658770e+04 1.441866e+04 -2.501422e+05
[...]
POINT_DATA 9576
VECTORS displacement double
0.010741 -0.053895 -0.021768
0.009275 -0.051229 -0.021856
0.010275 -0.053803 -0.018630
0.008283 -0.049752 -0.020054
0.022471 -0.073137 0.041777
0.021210 -0.070709 0.045299
0.020460 -0.070660 0.039951
0.020722 -0.072295 0.030972
0.018656 -0.069560 0.029766
0.017691 -0.067665 0.033564
0.018462 -0.067926 0.038980
0.019681 -0.070383 0.034587
0.033090 -0.063113 0.120052
0.030509 -0.058753 0.122373
0.028027 -0.056307 0.119361
0.030216 -0.059609 0.118882
0.028032 -0.055090 0.122730
0.033183 -0.060283 0.128239
0.027963 -0.053704 0.126416
0.023746 -0.066635 0.073471
0.022957 -0.066965 0.068890
0.027499 -0.072525 0.071718
0.026586 -0.072685 0.067048
0.024493 -0.066232 0.077952
0.031677 -0.069007 0.098670
0.027474 -0.061110 0.104130
0.027181 -0.062264 0.099859
0.024714 -0.072678 0.057575
0.024001 -0.073017 0.052417
0.021831 -0.070692 0.049355
0.020432 -0.067273 0.054869
0.021307 -0.067295 0.059577
0.014682 -0.064685 0.011331
0.015606 -0.065952 0.006954
0.019109 -0.071008 0.019816
0.017868 -0.068954 0.024025
0.016022 -0.066321 0.022747
0.026768 -0.063259 0.095580
0.031123 -0.069853 0.094310
0.019822 -0.067738 0.049666
0.023263 -0.073209 0.047128
0.027914 -0.058635 0.112464
0.032957 -0.064456 0.115884
0.027987 -0.057490 0.115948
0.016879 -0.067129 0.028152
0.019757 -0.071498 0.025581
0.017565 -0.068919 0.008372
0.014738 -0.064276 0.001475
0.016681 -0.067288 0.002820
0.013902 -0.063289 0.005745
0.013041 -0.061499 0.000307
0.015714 -0.065331 -0.002567
0.013947 -0.062497 -0.003713
0.029880 -0.071291 0.085349
0.026266 -0.064111 0.091265
0.032739 -0.065705 0.111666
0.004091 -0.036627 -0.038698
0.002299 -0.033353 -0.035067
0.004461 -0.039401 -0.030200
-0.067593 0.068308 -0.065107
-0.064591 0.063094 -0.072297
-0.057080 0.056273 -0.071929
-0.060126 0.061772 -0.065004
0.006524 -0.045036 -0.025207
0.007787 -0.046427 -0.029756
0.028344 -0.072239 0.076306
0.021618 -0.072841 0.036380
0.033115 -0.058808 0.132248
0.027830 -0.052071 0.130677
0.025731 -0.064904 0.086864
-0.017672 0.010109 -0.059018
-0.000585 -0.024685 -0.047085
0.001865 -0.030781 -0.043246
-0.003021 -0.019259 -0.044420
-0.006449 -0.011219 -0.048461
-0.022550 0.017932 -0.060954
-0.036620 0.034712 -0.070142
-0.030424 0.026882 -0.069210
-0.033545 0.033176 -0.063554
-0.006570 -0.011304 -0.055617
-0.009746 -0.004237 -0.052637
-0.010261 -0.004186 -0.059734
-0.013430 0.002803 -0.056182
0.032439 -0.066881 0.107402
0.027723 -0.059891 0.108332
-0.003287 -0.018341 -0.050812
0.022152 -0.067194 0.064257
0.025669 -0.072736 0.062319
-0.053008 0.055050 -0.064772
-0.049931 0.049381 -0.071449
-0.046195 0.048026 -0.064513
-0.027793 0.025428 -0.062625
-0.024611 0.018955 -0.067802
0.018367 -0.070143 0.014073
0.016602 -0.067554 0.012786
0.015392 -0.065713 0.017015
-0.000073 -0.026851 -0.039905
0.006150 -0.042177 -0.033557
-0.043089 0.042155 -0.070886
-0.039685 0.040726 -0.064078
0.032096 -0.067992 0.103041
0.025145 -0.065643 0.082410
0.029178 -0.071861 0.080789
0.011059 -0.056834 -0.009934
0.012096 -0.059355 -0.004929
0.012753 -0.059876 -0.008742
0.017315 -0.068502 0.018495
0.009769 -0.053643 -0.014914
0.011632 -0.057131 -0.013814
0.012114 -0.057253 -0.017335
-0.019368 0.011198 -0.065683
0.013415 -0.060303 -0.012637
0.030518 -0.070601 0.089863
0.019165 -0.067956 0.044359
0.014655 -0.063033 -0.007739
0.033181 -0.061720 0.124176
-0.014478 0.003258 -0.063115
0.009284 -0.050269 -0.025910
-0.009099 0.009675 0.005800
-0.010650 0.013643 0.002329
-0.029890 0.047133 0.002204
-0.031020 0.048132 -0.002122
-0.033259 0.050880 -0.002003
-0.031947 0.049735 0.002147
-0.033041 0.051380 0.006743
-0.034177 0.052387 0.002229
-0.051162 0.070502 0.005664
-0.049505 0.068614 0.001249
-0.043043 0.061882 -0.002660
-0.044049 0.063343 0.001667
-0.041427 0.060606 0.001788
-0.042916 0.062504 0.006400
-0.063204 0.080888 0.003795
-0.061887 0.079476 -0.000590
-0.064953 0.081952 -0.000591
-0.063069 0.079904 -0.005481
-0.006259 -0.001135 0.000022
-0.059983 0.077442 -0.005023
-0.007815 0.005615 0.005717
-0.007200 0.003092 0.002761
-0.066306 0.082544 -0.005261
-0.068214 0.084571 -0.000310
-0.066460 0.083533 0.004030
-0.024558 0.040022 0.005954
-0.023926 0.038744 0.001771
-0.025801 0.041505 0.001895
-0.024798 0.039578 -0.002475
-0.012124 0.016764 -0.001492
-0.012850 0.018900 0.002171
-0.011785 0.016777 0.005824
-0.010429 0.013408 0.005842
-0.009582 0.010775 0.002270
-0.008404 0.007340 0.002475
-0.008878 0.008183 -0.000750
-0.009861 0.011073 -0.001013
-0.021074 0.033821 -0.002646
-0.020350 0.033146 0.001588
-0.020854 0.034273 0.005595
-0.022094 0.035924 0.001647
-0.054068 0.073157 0.005218
-0.052471 0.071356 0.000764
-0.055758 0.074331 0.000381
-0.007966 0.005302 -0.000460
-0.040481 0.059155 -0.002501
-0.040331 0.059738 0.006485
-0.037989 0.056400 -0.002336
-0.038949 0.057897 0.001969
-0.036501 0.055124 0.002088
-0.101207 0.107926 0.015701
-0.101163 0.107460 0.006043
-0.095790 0.104530 0.012737
-0.096048 0.104157 0.003361
-0.045697 0.064537 -0.002780
-0.035584 0.053639 -0.002174
-0.051202 0.069743 -0.003509
-0.027697 0.044174 0.001845
-0.087461 0.099018 0.008718
-0.088130 0.099192 0.004310
-0.091311 0.101592 0.010378
-0.091344 0.100991 0.000940
-0.054055 0.072347 -0.004026
-0.075004 0.089748 0.000180
-0.076486 0.090337 -0.004575
-0.078472 0.092269 0.000576
-0.080236 0.093908 0.005897
-0.081708 0.094664 0.001867
-0.107171 0.111503 0.019081
-0.107177 0.111192 0.009373
-0.070687 0.127239 0.042997
-0.071282 0.129067 0.031091
-0.063686 0.121685 0.041497
-0.064142 0.123597 0.029354
-0.028641 0.045788 0.006390
-0.010952 0.013946 -0.001272
-0.045588 0.065215 0.006289
-0.046728 0.065984 0.001551
-0.014749 0.022450 -0.001925
-0.014153 0.021711 0.002052
-0.014495 0.022705 0.005795
-0.015576 0.024591 0.001941
-0.069797 0.086170 0.004315
-0.037814 0.056946 0.006583
-0.057028 0.075796 0.004739
-0.011675 0.016186 0.001993
-0.005848 0.036916 0.021414
-0.004591 0.017666 0.033246
-0.004973 0.032136 0.018836
-0.007138 0.042009 0.024917
-0.006034 0.029671 0.036511
-0.080022 0.092982 -0.003525
-0.085205 0.097156 0.003191
-0.083620 0.095635 -0.002197
-0.026562 0.042914 0.006165
-0.083817 0.096481 0.007297
-0.017079 0.027476 0.001818
-0.019128 0.031441 0.005658
-0.011215 0.054664 0.028827
-0.008642 0.041304 0.040162
-0.016218 0.025339 -0.002127
-0.071570 0.087187 -0.000058
-0.073209 0.088779 0.004586
-0.048342 0.067848 0.006119
-0.048413 0.067151 -0.003014
-0.022672 0.037140 0.005736
-0.015948 0.025623 0.005766
-0.018673 0.030338 0.001699
-0.017504 0.028537 0.005708
-0.017129 0.067925 0.030166
-0.013895 0.060911 0.030683
-0.013517 0.055473 0.043356
-0.024767 0.081332 0.028877
-0.028902 0.085124 0.040317
-0.024422 0.078087 0.041445
-0.010865 0.048619 0.041660
-0.069626 0.085174 -0.005043
-0.044956 0.106582 0.026274
-0.008966 0.048193 0.027148
-0.020764 0.074749 0.029429
-0.020372 0.070856 0.042057
-0.057374 0.118091 0.027915
-0.050624 0.110357 0.039135
-0.022905 0.036688 -0.002589
-0.004536 0.022280 0.026922
-0.076691 0.091342 0.004861
-0.016730 0.063358 0.042723
-0.007000 0.034370 0.038588
-0.017752 0.028216 -0.002330
-0.013109 0.019796 0.005805
-0.006623 0.001222 0.005543
-0.004359 0.026656 0.018337
-0.056984 0.116096 0.040027
-0.029235 0.087904 0.027783
-0.033774 0.091904 0.039298
-0.050969 0.112436 0.026903
-0.044639 0.104432 0.038606
-0.034061 0.094254 0.026816
-0.039329 0.100490 0.026455
-0.004146 0.007645 0.032080
-0.003869 -0.007458 0.027353
-0.073014 0.087793 -0.004819
-0.005561 -0.003561 0.004577
-0.005326 -0.005595 0.000210
-0.060083 0.078367 0.004257
-0.058861 0.077003 -0.000107
-0.005212 0.024346 0.034664
-0.013387 0.019597 -0.001709
-0.026795 0.042466 -0.002377
-0.019377 0.031057 -0.002485
-0.030800 0.048620 0.006565
-0.028845 0.045320 -0.002259
-0.087284 0.098213 -0.000826
-0.056990 0.074916 -0.004526
-0.035377 0.054144 0.006679
-0.038977 0.098273 0.038861
-0.004638 -0.009032 0.003442
-0.004040 -0.015223 0.002248
-0.003934 -0.003452 0.027031
-0.007123 0.002432 -0.000148
-0.004143 -0.014328 0.002686
-0.004619 -0.010050 0.000948
-0.003909 -0.017907 0.006597
-0.003799 -0.021185 0.002979
-0.003786 -0.017844 0.015579
0.015617 -0.061705 0.018192
0.013946 -0.058359 0.022922
0.014010 -0.059903 0.011696
0.015587 -0.062688 0.006689
0.017423 -0.064810 0.014512
0.014024 -0.059289 0.017397
0.013763 -0.057072 0.028455
0.015511 -0.060717 0.023885
0.015384 -0.059799 0.028230
0.017223 -0.062982 0.026019
0.013321 -0.055137 0.034471
0.016639 -0.059915 0.036983
-0.003775 -0.010407 0.129520
-0.005653 -0.008011 0.132054
-0.000517 -0.014645 0.135828
-0.008669 -0.003807 0.125739
0.015362 -0.062453 0.001146
0.017368 -0.064055 0.020337
0.016976 -0.061615 0.031489
0.012674 -0.052347 0.041405
-0.026056 0.062359 -0.080816
-0.032037 0.072305 -0.078767
0.015972 -0.062793 -0.010923
0.015254 -0.062166 -0.003716
0.013457 -0.059261 -0.006067
-0.017622 0.043948 -0.088807
-0.020613 0.052345 -0.082059
-0.015648 0.042229 -0.082406
0.012839 -0.057727 -0.012335
0.008333 -0.033663 0.082819
0.004147 -0.026117 0.081093
0.001214 -0.019899 0.087782
0.005509 -0.027441 0.090087
-0.002026 -0.013581 0.093959
0.017260 -0.065225 0.002518
0.014858 -0.059920 -0.019575
0.016791 -0.064455 -0.003739
0.013913 -0.060127 0.005856
0.015371 -0.054582 0.050092
0.011586 -0.048371 0.049184
0.016131 -0.057653 0.043084
-0.029414 0.064886 -0.086727
-0.023288 0.054483 -0.088170
-0.005353 -0.007863 0.100131
0.002264 -0.020996 0.096862
-0.007891 0.022479 -0.086845
-0.012559 0.033320 -0.088350
-0.010833 0.031108 -0.081672
0.003857 -0.015292 -0.070117
0.002410 -0.013261 -0.064364
0.000254 -0.003240 -0.070199
0.013738 -0.059925 -0.000091
-0.008843 -0.002332 0.105914
-0.004136 -0.010031 0.109709
0.001754 -0.006798 -0.075348
-0.002593 0.007519 -0.075267
-0.000934 0.002582 -0.080025
-0.006398 0.019217 -0.079149
-0.006139 -0.007160 0.123047
-0.006236 -0.006883 0.116204
-0.010637 -0.000611 0.119193
0.013274 -0.055109 -0.029725
0.010678 -0.050833 -0.028366
0.011911 -0.055071 -0.019647
0.007052 -0.035361 -0.048631
-0.001122 -0.014910 0.103130
-0.010327 -0.000552 0.112483
0.004895 -0.024824 -0.057566
0.010645 -0.039636 0.075001
0.006579 -0.032152 0.073950
-0.004149 0.012620 -0.083938
0.015652 -0.062356 0.012449
0.011448 -0.048246 -0.040714
0.007479 -0.031264 -0.058333
0.008536 -0.037878 0.066187
0.017394 -0.065218 0.008547
0.009527 -0.040031 -0.050549
0.005519 -0.022751 -0.064472
0.010205 -0.043332 0.057730
0.008922 -0.044122 -0.038253
0.014210 -0.050413 0.057982
0.012564 -0.045187 0.066500
0.052304 -0.096514 0.060748
0.055450 -0.100050 0.057639
0.052557 -0.097967 0.055410
0.040751 -0.061553 -0.108036
0.047253 -0.077636 -0.088094
0.054597 -0.087558 -0.081222
0.052925 -0.082979 -0.088744
0.056085 -0.087602 0.105224
0.055692 -0.085860 0.109633
0.055224 -0.083939 0.114380
0.037972 -0.055611 -0.113995
0.046360 -0.067265 -0.109132
0.043569 -0.061458 -0.115292
0.058687 -0.106963 0.033144
0.055885 -0.105039 0.029598
0.052991 -0.102219 0.032846
0.051764 -0.092134 0.076130
0.054598 -0.094324 0.077797
0.057763 -0.097415 0.076859
0.055027 -0.095985 0.073058
0.048926 -0.082372 -0.080726
0.052700 -0.103105 -0.011856
0.058337 -0.107661 -0.011977
0.052903 -0.103861 -0.002688
0.058487 -0.108366 -0.002776
0.031751 -0.043257 -0.124725
0.040551 -0.055442 -0.121063
0.037318 -0.049327 -0.126419
0.056737 -0.090965 0.096172
0.050559 -0.085462 0.095145
0.054033 -0.089829 0.091665
0.057027 -0.092627 0.091488
0.052201 -0.095196 0.065958
0.055309 -0.098751 0.062808
0.058164 -0.101559 0.061269
0.012974 -0.012324 -0.146193
0.014154 -0.012658 -0.152735
0.028401 -0.037097 -0.129632
0.033957 -0.043276 -0.131566
0.009638 -0.006687 -0.156258
0.004894 -0.000756 -0.159579
0.055859 -0.102618 0.046695
0.055927 -0.103606 0.041049
0.058595 -0.104275 0.050330
0.055706 -0.101422 0.052240
0.052808 -0.099332 0.049918
0.053122 -0.103587 0.020688
0.053210 -0.104079 0.013644
0.056226 -0.106396 0.017382
0.058862 -0.108733 0.013728
0.058799 -0.108276 0.020848
0.055915 -0.104410 0.035330
0.053017 -0.101476 0.038608
0.043220 -0.067204 -0.101760
0.048866 -0.072796 -0.102676
0.049346 -0.080196 0.108376
0.052524 -0.082714 0.110172
0.053020 -0.084729 0.105247
0.051415 -0.090417 0.081046
0.054538 -0.093018 0.082218
0.057463 -0.095765 0.081847
0.004051 -0.000091 -0.153065
-0.001451 0.006778 -0.156631
0.048802 -0.078230 0.113038
0.052858 -0.102248 -0.021196
0.017128 -0.018453 -0.142460
0.022640 -0.024812 -0.145066
0.008652 -0.006234 -0.149706
0.018477 -0.018730 -0.148987
0.058392 -0.102978 0.055874
0.051158 -0.088811 0.085832
0.054285 -0.091443 0.086927
0.050163 -0.083711 0.099635
0.053721 -0.088158 0.096237
0.050187 -0.086553 -0.073019
0.049791 -0.081973 0.104042
0.034978 -0.049497 -0.119572
0.056249 -0.106693 0.011170
0.058633 -0.107545 0.027217
0.051035 -0.090222 -0.065102
0.056739 -0.095214 -0.065474
0.058710 -0.105390 0.044683
0.052770 -0.100767 -0.030463
0.058079 -0.103370 -0.039755
0.052465 -0.098677 -0.039568
0.058400 -0.105390 -0.030646
0.053148 -0.104222 0.005862
0.030359 -0.037085 -0.136363
0.053370 -0.086451 0.100724
0.056401 -0.089267 0.100738
0.055214 -0.097436 0.067980
0.052024 -0.093732 0.071091
0.057246 -0.094197 0.086708
0.058763 -0.108789 0.005876
0.052960 -0.100507 0.044301
0.055901 -0.091655 -0.073463
0.058110 -0.100327 0.066547
0.057973 -0.098939 0.071751
0.050905 -0.087175 0.090523
0.024844 -0.030845 -0.134209
0.021038 -0.024598 -0.138422
0.051662 -0.093412 -0.056849
0.057357 -0.098319 -0.057146
0.058488 -0.106835 -0.021358
0.048010 -0.075722 0.118688
0.052066 -0.096186 -0.048332
0.057752 -0.100960 -0.048561
0.026569 -0.030907 -0.140811
0.054551 -0.081566 0.119996
0.051006 -0.078032 -0.095923
0.045346 -0.072559 -0.095143
0.052940 -0.102835 0.026998
0.055986 -0.105723 0.023883
0.058751 -0.106271 0.038939
-0.405698 0.171115 -0.103423
-0.406056 0.174371 -0.094068
-0.416128 0.174478 -0.096293
-0.381276 0.192283 0.005780
-0.395241 0.191762 -0.013478
-0.405561 0.189564 -0.034848
-0.372565 0.190772 0.000489
-0.358127 0.190288 0.017386
-0.243796 0.138293 0.190201
-0.217185 0.121146 0.212908
0.301421 -0.161138 0.228033
0.303918 -0.159802 0.232398
0.312366 -0.168622 0.215102
-0.246454 0.143062 0.178547
-0.263265 0.152186 0.164415
-0.188402 0.105849 0.223937
-0.183208 0.100789 0.231045
-0.330236 0.186653 0.047042
-0.335589 0.187226 0.054699
-0.385633 0.190129 -0.017206
-0.349224 0.189630 0.040686
-0.319108 0.184155 0.059240
-0.323489 0.184381 0.068409
0.099618 -0.070875 0.270286
0.142115 -0.092941 0.265797
-0.404734 0.180695 -0.072499
-0.415701 0.179850 -0.078954
-0.414580 0.182752 -0.067748
-0.023433 0.003947 0.258415
-0.016796 -0.000794 0.263241
0.035279 -0.034163 0.264279
0.041950 -0.037593 0.268325
0.147330 -0.093726 0.270146
0.184380 -0.110968 0.264431
0.190255 -0.111424 0.268687
-0.402083 0.184513 -0.057638
-0.307605 0.180878 0.074292
-0.365310 0.191179 0.024189
0.310386 -0.170204 0.209865
0.314101 -0.176788 0.193777
0.316239 -0.175124 0.199648
0.256037 -0.138678 0.254638
0.223702 -0.126210 0.261382
0.228305 -0.126084 0.264858
0.281914 -0.149475 0.244670
0.259440 -0.137893 0.258353
-0.069366 0.033985 0.253036
-0.064295 0.029959 0.257682
-0.405812 0.177504 -0.084210
-0.416180 0.177115 -0.088217
0.287354 -0.149004 0.248505
-0.149982 0.083179 0.237735
-0.144980 0.078519 0.243731
-0.109612 0.059182 0.246810
-0.105222 0.055062 0.252051
-0.293830 0.175432 0.095299
-0.310117 0.180123 0.084797
-0.294323 0.173203 0.107662
-0.395825 0.188185 -0.037702
-0.343259 0.188610 0.033154
-0.264018 0.156153 0.151008
-0.279332 0.163886 0.136043
-0.221804 0.126245 0.203412
-0.411731 0.186225 -0.053601
-0.278901 0.167049 0.121960
0.094498 -0.069498 0.266270
-0.229108 0.088806 -0.209209
-0.200822 0.075261 -0.218216
-0.237786 0.090400 -0.210495
-0.419611 0.172122 -0.103482
-0.408031 0.169609 -0.108029
0.289882 -0.176281 -0.132026
0.285060 -0.175359 -0.132072
0.278768 -0.169686 -0.142250
0.284326 -0.171243 -0.141494
0.278201 -0.165918 -0.150634
-0.395940 0.163790 -0.120306
-0.393012 0.159516 -0.129959
-0.378618 0.155578 -0.135912
0.272186 -0.163892 -0.152103
0.245288 -0.140942 -0.187650
0.237229 -0.137822 -0.189632
0.225325 -0.128797 -0.201527
0.100641 -0.070410 -0.233046
0.096801 -0.069534 -0.230307
0.125806 -0.082245 -0.229339
0.074492 -0.059011 -0.232233
-0.408350 0.166820 -0.115365
-0.165606 0.061194 -0.222025
-0.196138 0.075067 -0.215789
-0.163785 0.061693 -0.219240
0.337005 -0.208454 -0.058684
0.329895 -0.207791 -0.056329
0.352318 -0.217102 -0.025819
-0.273128 0.105567 -0.199606
-0.261461 0.102401 -0.200109
0.297086 -0.182238 -0.120846
0.291449 -0.181214 -0.120194
-0.014996 -0.013283 -0.222480
0.130753 -0.083238 -0.231478
0.165065 -0.098273 -0.226067
0.160446 -0.097438 -0.224179
0.252894 -0.148321 -0.175814
0.260480 -0.151322 -0.173411
0.014858 -0.029829 -0.227655
0.034842 -0.040011 -0.229074
0.036579 -0.041232 -0.226622
0.055291 -0.050579 -0.228280
0.270803 -0.159603 -0.161022
0.264441 -0.157256 -0.163058
0.217108 -0.125978 -0.202355
0.198730 -0.114643 -0.214699
0.192420 -0.112917 -0.213969
-0.307214 0.120330 -0.185429
-0.292339 0.115947 -0.188109
0.319074 -0.198556 -0.085430
0.313187 -0.197949 -0.083601
0.301116 -0.188911 -0.104718
-0.092748 0.028619 -0.222896
-0.094877 0.030754 -0.220548
-0.053421 0.008544 -0.221439
-0.370737 0.149094 -0.147948
-0.417018 0.173898 -0.098089
0.053461 -0.049189 -0.230707
0.014558 -0.029827 -0.224777
-0.012147 -0.015144 -0.225170
-0.131610 0.048076 -0.220333
-0.353576 0.143771 -0.154690
-0.340781 0.135132 -0.167934
-0.323079 0.129693 -0.173132
-0.130727 0.046252 -0.223119
0.361766 -0.218165 -0.027122
0.381545 -0.224490 0.007335
0.393632 -0.225765 0.007507
0.074648 -0.059732 -0.229511
0.306185 -0.189388 -0.105804
-0.049650 0.005889 -0.223664
0.428648 -0.231274 0.043108
0.414233 -0.230210 0.042063
0.422104 -0.230490 0.050332
0.431936 -0.213219 0.179491
0.453110 -0.217221 0.169437
0.256446 -0.157209 0.243322
-0.051957 0.025004 0.330693
-0.024548 0.008797 0.331084
0.339889 -0.192353 0.205232
0.300406 -0.179851 0.216926
0.262532 -0.162886 0.234346
0.295896 -0.175278 0.225328
-0.375760 0.226672 -0.048799
-0.383957 0.226778 -0.053529
0.016619 -0.014361 0.336703
0.043720 -0.029261 0.334372
0.336471 -0.188916 0.213207
-0.285477 0.200715 0.140849
-0.291060 0.204133 0.132833
-0.369729 0.219226 -0.081614
-0.381435 0.231189 -0.021630
-0.369761 0.230386 -0.016323
-0.374509 0.218674 -0.085741
0.410180 -0.206085 0.196193
0.179299 -0.103669 0.307436
0.154011 -0.090206 0.315916
0.141929 -0.081999 0.324683
-0.193289 0.109536 0.289578
-0.285847 0.191811 0.170548
-0.290032 0.195259 0.163276
-0.327094 0.225550 0.042932
-0.344905 0.228538 0.038215
-0.317809 0.221958 0.068659
-0.301361 0.218209 0.075027
0.084845 -0.051261 0.335065
0.204011 -0.124983 0.277534
0.221629 -0.136503 0.265277
-0.322324 0.193707 -0.140400
-0.350714 0.207781 -0.113428
-0.352002 0.206946 -0.116301
-0.367962 0.231553 0.008469
-0.211292 0.123863 0.274768
-0.241931 0.145235 0.252321
-0.227866 0.132347 0.269680
-0.088350 0.047644 0.321139
-0.110237 0.058913 0.320049
-0.154660 0.085308 0.305976
-0.136172 0.075778 0.308278
0.435925 -0.211818 0.185385
0.408209 -0.207883 0.189696
0.376087 -0.198768 0.204524
0.453912 -0.227802 0.118632
0.457125 -0.227648 0.121100
0.444301 -0.230480 0.088323
0.448135 -0.218147 0.164878
0.459561 -0.222864 0.147722
0.455665 -0.223298 0.144540
0.376591 -0.201197 0.197527
0.105504 -0.062988 0.329062
0.183841 -0.109007 0.298285
0.199249 -0.118980 0.287680
0.228403 -0.143214 0.255397
-0.175389 0.100279 0.293152
-0.297744 0.213388 0.100487
-0.287048 0.209345 0.108313
-0.280741 0.179985 0.199487
-0.287001 0.184345 0.192322
-0.352860 0.229744 0.012850
-0.291875 0.178843 -0.161537
-0.262080 0.163966 -0.178686
-0.291550 0.178454 -0.162226
-0.255978 0.152525 0.246280
-0.265836 0.164316 0.227048
-0.276447 0.170397 0.220115
-0.321983 0.193047 -0.141851
0.441916 -0.230433 0.086904
0.180217 -0.088970 -0.254831
0.157438 -0.080084 -0.255399
0.204072 -0.101916 -0.246174
0.409046 -0.222845 0.040578
0.404916 -0.222667 0.026554
0.396697 -0.221959 0.034114
0.412528 -0.222182 0.055488
0.401341 -0.221874 0.045946
0.110870 -0.056874 -0.260422