# vtk DataFile Version 2.0
Simplicial Mesh Example
ASCII
DATASET UNSTRUCTURED_GRID
POINTS 8878 double
-1.887288e+05 -1.140747e+05 1.219525e+05
-1.845412e+05 -1.124097e+05 1.296635e+05
-1.891969e+05 -1.114813e+05 1.236141e+05
-1.936578e+05 -1.130096e+05 1.150196e+05
-2.288144e+05 -9.781324e+04 -3.975601e+04
-2.289265e+05 -9.562056e+04 -4.419704e+04
-2.307623e+05 -9.519619e+04 -3.450305e+04
-2.302583e+05 -9.796976e+04 -2.978319e+04
-2.237774e+05 -1.090155e+05 3.928471e+04
-2.263734e+05 -9.906501e+04 -4.944917e+04
-2.261649e+05 -9.741792e+04 -5.350896e+04
-2.000827e+05 -1.149402e+05 -1.012900e+05
-1.998927e+05 -1.127111e+05 -1.041302e+05
-1.952789e+05 -1.150509e+05 -1.101519e+05
-1.932785e+05 -1.155813e+05 1.130858e+05
-1.979996e+05 -1.141075e+05 1.062056e+05
-2.140411e+05 -1.146925e+05 6.735027e+04
-2.177541e+05 -1.111044e+05 6.117971e+04
-2.230653e+05 -1.015185e+05 -5.865018e+04
-2.226809e+05 -1.001517e+05 -6.234451e+04
-2.308632e+05 -1.005491e+05 -9.801127e+03
-1.819353e+05 -1.084358e+05 1.365475e+05
-1.785184e+05 -1.097285e+05 1.399815e+05
-1.764303e+05 -1.087539e+05 1.433490e+05
-1.793262e+05 -1.072413e+05 1.408739e+05
-1.773137e+05 -1.063003e+05 1.440975e+05
-2.294523e+05 -1.037028e+05 1.006828e+04
-2.300348e+05 -1.018991e+05 1.430305e+04
-1.861241e+05 -1.119142e+05 -1.278164e+05
-1.906933e+05 -1.112275e+05 -1.215258e+05
-1.862689e+05 -1.090216e+05 -1.300853e+05
-2.320091e+05 -9.723020e+04 -1.490185e+04
-2.317831e+05 -9.876309e+04 -5.143394e+03
-2.303839e+05 -1.021138e+05 1.511048e+02
-2.317269e+05 -9.590041e+04 -2.469355e+04
-2.308733e+05 -9.904767e+04 -1.977616e+04
-1.976750e+05 -1.166134e+05 1.040669e+05
-2.022108e+05 -1.146800e+05 9.727935e+04
-2.311288e+05 -1.003109e+05 4.605824e+03
-2.280505e+05 -1.053574e+05 1.991899e+04
-2.186626e+05 -1.033364e+05 -7.079720e+04
-2.142469e+05 -1.065655e+05 -7.903216e+04
-2.099710e+05 -1.110319e+05 -8.419081e+04
-2.095488e+05 -1.094704e+05 -8.723256e+04
-2.147133e+05 -1.079343e+05 -7.584458e+04
-2.191221e+05 -1.046294e+05 -6.739565e+04
-2.176477e+05 -1.129559e+05 5.808991e+04
-2.210490e+05 -1.092356e+05 5.204721e+04
-2.261629e+05 -1.071170e+05 2.966994e+04
-2.101696e+05 -1.160641e+05 7.656279e+04
-2.141540e+05 -1.127292e+05 7.024371e+04
-2.019446e+05 -1.170837e+05 9.494104e+04
-1.727410e+05 -1.015164e+05 -1.528365e+05
-1.775112e+05 -1.025272e+05 -1.465672e+05
-1.677508e+05 -9.769741e+04 -1.606825e+05
-1.680199e+05 -9.487947e+04 -1.620839e+05
-1.730459e+05 -9.853601e+04 -1.544337e+05
-2.050322e+05 -1.135188e+05 -9.262433e+04
-1.492634e+05 -1.000411e+05 -1.766811e+05
-1.525565e+05 -9.868447e+04 -1.746193e+05
-1.498592e+05 -9.755086e+04 -1.775671e+05
-1.620494e+05 -9.622485e+04 -1.672865e+05
-1.530681e+05 -9.621477e+04 -1.755473e+05
-1.571731e+05 -9.472374e+04 -1.727079e+05
-1.567883e+05 -9.718321e+04 -1.716883e+05
-1.623097e+05 -9.367581e+04 -1.684767e+05
-1.772447e+05 -1.055256e+05 -1.447504e+05
-1.906373e+05 -1.139796e+05 -1.190382e+05
-1.473598e+05 -9.861778e+04 -1.790632e+05
-2.209161e+05 -1.110120e+05 4.874876e+04
-1.818952e+05 -1.060708e+05 -1.384454e+05
-1.816821e+05 -1.090408e+05 -1.364028e+05
-1.952227e+05 -1.125168e+05 -1.128365e+05
-2.103159e+05 -1.139617e+05 7.927137e+04
-2.063145e+05 -1.146473e+05 8.828541e+04
-2.061118e+05 -1.169079e+05 8.575811e+04
-1.811765e+05 -1.109420e+05 1.355395e+05
-2.047036e+05 -1.116596e+05 -9.556454e+04
-2.284853e+05 -1.035668e+05 2.392426e+04
-1.756795e+05 -1.055283e+05 1.466441e+05
-2.239750e+05 -1.072682e+05 4.281034e+04
-1.851579e+05 -1.098507e+05 1.309709e+05
-1.747979e+05 -1.079837e+05 1.459082e+05
-1.466678e+05 -1.011405e+05 -1.782222e+05
-2.264673e+05 -1.053495e+05 3.343725e+04
2.414403e+05 -7.215653e+04 2.005672e+03
2.411864e+05 -7.204854e+04 1.192233e+04
2.438820e+05 -6.306718e+04 6.934434e+03
-1.864231e+05 4.314375e+04 1.639788e+05
-1.808560e+05 5.191504e+04 1.676304e+05
-1.928977e+05 4.384311e+04 1.561161e+05
-1.980853e+05 4.562256e+04 1.489456e+05
-9.303316e+04 -2.240282e+05 -6.826571e+04
-1.874467e+05 5.266319e+04 1.599823e+05
-9.136348e+04 1.846555e+04 -2.341276e+05
-8.272440e+04 8.751891e+03 -2.378741e+05
-8.153605e+04 1.959524e+04 -2.376382e+05
-1.607839e+04 -1.003407e+05 2.306019e+05
-6.562188e+03 -9.565442e+04 2.330476e+05
-6.730395e+03 -1.054640e+05 2.287707e+05
-1.790375e+05 4.367104e+04 1.718790e+05
-1.155395e+05 -2.025394e+05 -9.556369e+04
-1.062814e+05 -2.047100e+05 -1.014992e+05
-1.392367e+05 -8.000066e+04 -1.942087e+05
7.920556e+04 1.881168e+05 1.477922e+05
6.824287e+04 1.910080e+05 1.495422e+05
7.372926e+04 1.956646e+05 1.406533e+05
8.275639e+04 1.933034e+05 1.388855e+05
2.414084e+05 -3.187223e+04 -6.488558e+04
2.436079e+05 -3.280743e+04 -5.552343e+04
2.385964e+05 -4.068018e+04 -7.014901e+04
8.835174e+04 -2.138650e+05 9.979839e+04
2.448631e+05 -1.350779e+04 5.799640e+04
2.231636e+05 1.164469e+05 1.192228e+04
2.181306e+05 1.255197e+05 1.295546e+04
-5.219625e+04 1.545037e+05 -1.921150e+05
-5.719716e+04 1.593392e+05 -1.866641e+05
-5.790772e+04 1.520634e+05 -1.924251e+05
4.614643e+04 -1.962561e+04 -2.469602e+05
4.661986e+04 -8.664190e+03 -2.474985e+05
-2.371157e+05 8.115433e+04 2.634599e+04
-2.387456e+05 7.906883e+04 1.589504e+04
-2.350246e+05 8.904360e+04 1.840258e+04
-2.364189e+05 8.681965e+04 8.510929e+03
-1.755446e+05 7.038543e+04 1.665353e+05
-1.685437e+05 1.683194e+05 8.225311e+04
-1.606632e+05 1.760679e+05 8.180112e+04
-4.745937e+03 -1.569295e+05 -1.971157e+05
-1.239776e+04 -1.614768e+05 -1.930687e+05
-3.518521e+04 -1.382343e+05 -2.077433e+05
-3.232782e+04 -1.291140e+05 -2.139824e+05
1.118821e+05 -2.227495e+05 3.700091e+04
1.032478e+05 -2.275253e+05 3.280460e+04
1.131660e+05 -2.198929e+05 4.842077e+04
1.045259e+05 -2.249306e+05 4.454835e+04
2.106309e+05 -5.905369e+04 1.251051e+05
2.053703e+05 -6.697718e+04 1.297733e+05
2.099441e+05 -6.892238e+04 1.211495e+05
2.044767e+05 -7.677712e+04 1.256923e+05
-3.972574e+03 2.349713e+05 9.097645e+04
-1.527407e+03 2.310927e+05 1.004879e+05
-1.103841e+04 2.315808e+05 9.875457e+04
2.026301e+05 8.361117e+04 -1.243149e+05
1.883519e+05 -1.503591e+05 -7.361866e+04
1.901775e+05 -1.520086e+05 -6.503773e+04
-2.473893e+04 2.405111e+05 -7.103788e+04
1.822922e+04 -2.348722e+05 -8.948043e+04
2.739139e+04 -2.342920e+05 -8.866214e+04
9.822569e+04 2.932543e+04 2.302080e+05
2.291914e+05 7.610951e+04 -7.199053e+04
-2.630427e+04 2.384220e+05 7.724645e+04
-3.279832e+04 2.346940e+05 8.571466e+04
2.403477e+05 7.129426e+04 -2.557593e+04
2.378402e+05 8.058918e+04 -2.101003e+04
2.369312e+05 8.097853e+04 -2.846224e+04
2.159068e+05 1.056066e+05 7.573319e+04
-9.340347e+03 2.272753e+05 1.084560e+05
-1.973649e+04 2.282279e+05 1.050071e+05
-1.793661e+05 -1.169136e+05 1.329022e+05
1.223590e+05 1.702881e+05 -1.397650e+05
1.128535e+05 1.778404e+05 -1.383506e+05
1.293817e+05 1.722870e+05 -1.306964e+05
1.208958e+05 1.779586e+05 -1.312209e+05
-4.061213e+04 2.308740e+05 9.247625e+04
6.995742e+04 -1.206220e+05 2.099054e+05
1.181377e+05 2.051919e+05 8.627731e+04
-7.607099e+04 -1.528924e+05 -1.853135e+05
2.457846e+05 -2.378558e+04 -5.028121e+04
1.166028e+04 -5.556631e+04 2.455207e+05
1.119749e+04 -4.524070e+04 2.476528e+05
2.067691e+04 -4.948695e+04 2.462265e+05
2.104031e+04 -5.979046e+04 2.438984e+05
-7.669779e+03 -1.753919e+05 -1.807840e+05
2.204615e+05 9.596684e+04 7.543940e+04
2.175836e+05 9.716900e+04 8.197306e+04
-8.326397e+04 2.221654e+05 -8.493317e+04
-8.184060e+04 2.262328e+05 -7.499898e+04
1.292535e+05 -7.533721e+04 2.027852e+05
8.758936e+04 1.009912e+05 -2.136185e+05
-1.349651e+05 -2.080499e+05 4.476246e+04
-1.283880e+05 -2.101313e+05 5.352900e+04
-9.827706e+04 4.456866e+04 -2.277263e+05
-9.618318e+04 3.466963e+04 -2.303276e+05
-8.972508e+04 3.913142e+04 -2.322114e+05
9.020502e+04 9.141059e+04 -2.168206e+05
9.853605e+04 9.474835e+04 -2.117012e+05
1.212840e+05 -1.585441e+05 -1.538114e+05
1.182443e+05 -1.713463e+05 -1.419956e+05
1.244510e+05 -1.635334e+05 -1.458519e+05
1.088747e+05 -1.741102e+05 -1.460682e+05
1.303319e+05 1.127444e+05 -1.838649e+05
2.007292e+05 -1.162625e+05 9.846236e+04
1.151660e+05 -1.664916e+05 -1.500711e+05
1.878288e+05 -1.002465e+05 -1.348146e+05
1.925888e+05 -1.022708e+05 -1.263101e+05
5.917015e+04 2.427668e+05 -3.266772e+04
2.299626e+05 9.962138e+04 -2.639677e+04
1.104421e+05 -1.456367e+05 1.734834e+05
1.072314e+05 -1.366185e+05 1.825947e+05
5.205395e+04 2.453222e+05 -2.472690e+04
2.293868e+05 -6.703032e+04 7.995400e+04
2.304634e+05 -5.736055e+04 8.426390e+04
2.023960e+05 -1.267302e+05 -8.049407e+04
2.148463e+05 6.496952e+04 1.145601e+05
2.104966e+05 6.683036e+04 1.213626e+05
1.982924e+05 8.915823e+04 1.274163e+05
1.936152e+05 9.853388e+04 1.277037e+05
-2.444596e+05 2.148977e+04 5.728621e+04
-2.421238e+05 3.395709e+04 6.104894e+04
-2.416442e+05 2.529726e+04 6.687393e+04
2.498904e+05 1.339798e+04 -2.965292e+04
-2.172378e+05 -1.277174e+05 -1.129334e+02
-2.430955e+05 -5.975673e+04 2.894288e+04
-2.456882e+05 -4.993431e+04 2.545381e+04
-2.439051e+05 -5.196217e+04 3.625209e+04
-7.785888e+04 2.334886e+05 -5.408381e+04
-7.553163e+04 2.364119e+05 -4.368488e+04
-8.653031e+04 2.318999e+05 -4.731762e+04
1.371897e+05 -5.834541e+04 2.031718e+05
1.369905e+05 -6.844609e+04 2.001318e+05
1.295849e+05 -6.530045e+04 2.060282e+05
-1.143082e+05 2.128603e+05 -7.161091e+04
-2.482279e+05 -2.422395e+04 3.605717e+04
-2.496032e+05 -1.427387e+04 3.159894e+04
-1.235943e+05 7.692460e+04 2.056965e+05
8.862032e+04 -2.227902e+05 7.755620e+04
8.855322e+04 -2.257094e+05 6.868458e+04
7.019679e+04 -2.370778e+05 -4.868826e+04
6.620880e+04 -2.356097e+05 -6.007055e+04
6.032386e+04 -2.390234e+05 -5.227642e+04
-1.492564e+05 -1.523807e+05 -1.341889e+05
-1.470119e+05 -1.603625e+05 -1.271825e+05
-5.229201e+04 2.439934e+05 -3.516750e+04
-4.778586e+04 2.461731e+05 -2.488561e+04
-6.116381e+04 2.426589e+05 -2.965886e+04
3.008702e+04 2.225688e+05 -1.142887e+05
2.328901e+04 2.261149e+05 -1.087827e+05
-9.096124e+04 2.002395e+05 1.230211e+05
-8.867237e+04 2.065077e+05 1.139991e+05
-8.262203e+04 2.040073e+05 1.227136e+05
1.662017e+05 -1.715235e+05 -8.037841e+04
1.797777e+05 4.290969e+03 1.765377e+05
[...]
POINT_DATA 8878
VECTORS displacement double
0.015629 -0.047839 -0.000038
0.018659 -0.038834 0.006063
-0.000663 0.074330 -0.010192
0.013589 0.078883 -0.021777
-0.116253 -0.013473 -0.119115
0.193901 -0.062851 -0.120413
0.199233 -0.050766 -0.118391
-0.124210 -0.021421 -0.123298
-0.095715 -0.066491 -0.086196
-0.105730 -0.006732 -0.108844
0.188144 -0.074646 -0.125109
-0.025763 -0.001373 -0.064821
0.108105 -0.144496 -0.105953
-0.015635 0.000269 -0.064536
0.009084 -0.055041 -0.007829
0.031077 0.080112 -0.035501
-0.052108 -0.068415 -0.052386
0.130697 0.049749 -0.100569
-0.093030 -0.004000 -0.096145
0.180990 -0.085408 -0.129448
-0.130050 -0.038289 -0.122496
-0.016371 0.058697 0.004557
0.019613 -0.019596 0.012363
0.016466 -0.009040 0.012248
-0.018903 0.048679 0.007774
-0.017691 0.039927 0.007273
-0.123690 -0.053362 -0.113164
0.196281 0.000718 -0.120197
0.004458 -0.002677 -0.059849
0.066451 -0.155285 -0.073108
0.045251 -0.154439 -0.057774
0.207292 -0.029457 -0.122635
0.207933 -0.019427 -0.124113
-0.128572 -0.046416 -0.119241
0.203604 -0.039799 -0.119634
-0.128430 -0.029962 -0.124205
-0.000318 -0.059918 -0.016553
0.050681 0.078651 -0.050156
0.204024 -0.009287 -0.123306
-0.116025 -0.059796 -0.103901
0.171101 -0.096268 -0.131722
0.158241 -0.108553 -0.130650
-0.050845 -0.004586 -0.069714
0.144072 -0.119111 -0.127715
-0.064483 -0.004478 -0.075799
-0.078909 -0.003697 -0.084946
-0.068330 -0.069279 -0.063798
0.149054 0.039425 -0.108137
-0.107232 -0.063869 -0.096008
-0.037557 -0.067574 -0.042179
0.111624 0.059248 -0.090907
-0.011725 -0.063308 -0.024842
0.031979 -0.013005 -0.041374
0.007264 -0.141462 -0.032623
0.037873 -0.021792 -0.030904
-0.016400 -0.117615 -0.031833
-0.009616 -0.130979 -0.026349
-0.037463 -0.003496 -0.065853
0.027367 -0.042365 -0.032146
0.034040 -0.042188 -0.024328
-0.002504 -0.063787 -0.046383
0.045514 -0.032083 -0.017809
-0.005522 -0.072803 -0.046319
-0.009869 -0.087911 -0.044886
0.041681 -0.036438 -0.017854
-0.013181 -0.101619 -0.040504
0.023627 -0.007440 -0.049538
-0.006076 -0.000883 -0.062541
0.003663 -0.053118 -0.047685
-0.084140 -0.068415 -0.076427
0.025015 -0.150208 -0.044042
0.014922 -0.004488 -0.055124
0.087504 -0.152173 -0.089754
0.091858 0.067694 -0.079244
0.071356 0.074467 -0.065090
-0.023744 -0.065638 -0.033136
0.019626 -0.029322 0.010211
0.127633 -0.132418 -0.119989
0.187646 0.011010 -0.118777
-0.009714 0.030850 0.008897
0.163467 0.030198 -0.112744
-0.010031 0.067280 -0.001457
0.006677 0.000078 0.009109
0.016317 -0.041019 -0.040598
0.176008 0.020589 -0.116160
0.086422 -0.057004 0.056502
0.089027 -0.054369 0.057342
0.085108 -0.056253 0.052976
-0.003993 0.004520 0.007407
-0.003565 0.003721 0.007725
-0.000617 0.003498 0.005499
0.002899 0.002469 0.003601
-0.037102 -0.013260 -0.037471
-0.000778 0.002944 0.006070
0.004691 -0.079756 0.015840
0.003624 -0.089709 0.013841
0.007557 -0.078216 0.022413
-0.014428 0.018334 0.005514
-0.013959 0.018079 0.003737
-0.015118 0.019077 0.004920
-0.006548 0.005067 0.008994
-0.012606 -0.018028 -0.053653
-0.013367 -0.017915 -0.054718
-0.037527 -0.070480 -0.050023
0.004156 -0.011932 0.004180
0.002746 -0.011096 0.004163
0.002673 -0.011227 0.003689
0.003888 -0.011972 0.003711
0.064594 -0.079349 0.031472
0.067033 -0.076282 0.033464
0.060328 -0.079853 0.033276
-0.116469 0.068915 0.046482
0.070098 -0.043982 0.034914
0.047600 -0.045784 0.003947
0.044250 -0.043619 0.002488
-0.041983 0.036739 0.023359
-0.044567 0.036805 0.024759
-0.039802 0.034172 0.027924
-0.091791 -0.064640 0.065628
-0.107945 -0.060899 0.058701
0.057964 -0.018621 -0.021326
0.061665 -0.020975 -0.022698
0.055747 -0.019175 -0.019689
0.058796 -0.021347 -0.020693
-0.000226 0.001744 0.006635
0.011631 -0.004146 -0.002403
0.009185 -0.003649 -0.001858
0.014474 0.074170 -0.031531
0.026522 0.071643 -0.032682
-0.013657 0.041823 -0.036222
-0.024090 0.045857 -0.039094
-0.158482 0.101673 0.069598
-0.148627 0.100765 0.063749
-0.160001 0.096047 0.069970
-0.151279 0.095836 0.064299
0.055937 -0.025564 0.032920
0.053696 -0.023625 0.032345
0.060523 -0.026048 0.036946
0.058731 -0.024108 0.036564
-0.010607 -0.002726 0.000169
-0.009061 -0.003587 0.000807
-0.009423 -0.003002 0.000752
0.082352 -0.098014 -0.019943
0.024137 -0.076494 0.073814
0.039003 -0.077538 0.077837
-0.051966 0.024835 -0.008155
-0.019061 0.108489 -0.024494
-0.014858 0.109320 -0.020499
0.006865 -0.010701 -0.002342
0.074303 -0.079612 -0.001619
-0.012637 -0.000715 -0.000461
-0.011021 -0.001251 0.000107
0.066080 -0.064068 0.008448
0.063249 -0.061215 0.006924
0.064509 -0.063472 0.005722
0.040972 -0.033890 0.009903
-0.008005 -0.003807 0.001407
-0.008489 -0.003141 0.001183
0.019777 -0.025663 0.010395
-0.027908 -0.006911 -0.047283
-0.042019 0.005498 -0.045980
-0.020430 -0.012616 -0.043032
-0.032132 -0.002725 -0.043052
-0.009653 -0.001613 0.000567
-0.016004 0.017599 0.002291
0.004937 -0.014327 0.000373
-0.011331 0.007306 -0.067997
0.069643 -0.075400 0.031472
-0.009354 0.013738 -0.004023
-0.008533 0.012816 -0.005379
-0.008196 0.011771 -0.006526
-0.009093 0.013001 -0.004996
0.050654 0.095507 -0.019967
0.043381 -0.034983 0.011280
0.041903 -0.033537 0.011151
-0.040886 0.020665 0.002960
-0.039118 0.019141 0.001660
0.002533 0.002414 0.002383
-0.029668 -0.019812 -0.039614
0.009512 -0.001321 -0.048850
0.005414 0.003486 -0.036246
0.013265 -0.038493 0.010583
0.009233 -0.054857 0.015253
0.011571 -0.047530 0.017297
-0.027374 -0.034777 -0.049280
-0.024470 -0.035446 -0.041296
-0.148505 -0.064069 0.012533
-0.139549 -0.090752 0.014768
-0.141234 -0.074346 0.014067
-0.147570 -0.099279 0.012728
0.027255 -0.072135 -0.096610
0.099954 -0.028141 0.068731
-0.147899 -0.080181 0.012604
-0.042763 -0.073012 0.030965
-0.033089 -0.072974 0.033524
-0.037783 0.009687 -0.014042
0.058961 -0.059187 0.001893
-0.025705 0.021838 0.010538
-0.019562 0.018198 0.008351
-0.035996 0.009084 -0.012509
0.082623 -0.036962 0.050953
0.076962 -0.036300 0.046080
0.017751 -0.071667 0.058634
0.041287 -0.029276 0.014308
0.039249 -0.027895 0.013530
0.033938 -0.025691 0.010724
0.032105 -0.025062 0.009833
0.071002 -0.014618 -0.032610
0.063085 -0.013721 -0.027705
0.061903 -0.012398 -0.027958
0.072710 -0.069655 0.023118
-0.087075 -0.035036 -0.104875
0.147270 -0.012930 -0.084324
0.142938 -0.017360 -0.079499
0.133297 -0.012422 -0.075710
-0.035165 0.016005 -0.000388
-0.033178 0.014471 -0.001117
-0.031264 0.013725 0.000162
0.006776 -0.001600 0.002006
0.005539 0.000057 0.002954
0.003950 0.000666 0.001260
-0.027648 0.012295 0.005352
0.113963 -0.018198 -0.059987
0.111320 -0.020770 -0.056653
-0.006228 0.001151 0.011727
-0.130531 0.078236 0.051713
-0.133752 0.081991 0.052790
-0.052884 0.110586 0.012548
-0.038486 0.112705 0.004558
-0.046503 0.109411 0.007012
0.014179 -0.027083 -0.051312
0.010299 -0.025238 -0.053111
-0.035807 0.014883 -0.003652
-0.033756 0.013217 -0.003952
-0.032706 0.013267 -0.002771
-0.077818 0.040382 -0.024703
-0.074709 0.038428 -0.021986
-0.001902 -0.002751 0.002178
-0.002916 -0.002424 0.001702
-0.002798 -0.002814 0.002257
0.012142 -0.087399 0.089623
0.025942 -0.016708 0.009355
-0.057590 0.086736 -0.021121
-0.053966 0.078147 -0.005856
0.054599 -0.095371 -0.020104
-0.034183 -0.026708 -0.038263
-0.033781 -0.032727 -0.044172
-0.033269 -0.035347 -0.040794
-0.033949 0.008301 -0.010902
-0.037960 0.010957 -0.011868
0.041963 -0.043098 0.000332
0.040389 -0.040483 0.001840
0.009890 0.008478 -0.087591
-0.010926 0.009580 0.012364
-0.011628 0.008959 0.013158
-0.004817 -0.012910 0.003539
-0.003708 -0.013053 0.001063
-0.004152 -0.012377 -0.003993
-0.003009 -0.012227 -0.003492
-0.048601 0.087306 -0.028582
-0.052818 0.105109 -0.010705
0.023842 -0.007656 -0.006647
0.162866 -0.049582 -0.087152
0.153644 -0.052012 -0.080137
-0.008846 0.012346 -0.005473
-0.010097 0.014157 -0.003538
0.064005 -0.035085 -0.017283
0.005348 -0.012824 0.003749
0.003724 -0.012069 0.003235
0.004894 -0.012844 0.003170
-0.015462 0.019812 0.011741
-0.014556 0.019441 0.012978
-0.054137 -0.008655 -0.027993
-0.010068 -0.003353 0.000232
-0.016001 0.010792 0.012345
-0.011859 0.008408 0.010732
-0.013609 0.008839 0.011914
0.005469 -0.025855 -0.020878
0.009252 -0.027511 -0.018143
0.001684 -0.022260 -0.019451
0.031964 -0.023918 0.010437
0.030245 -0.022970 0.009801
0.031635 -0.024230 0.010055
-0.004061 -0.000130 0.001049
-0.004339 0.000266 0.000303
-0.000414 -0.013895 -0.005667
0.001081 -0.015315 -0.006437
0.090248 -0.120014 -0.021141
0.088947 -0.023134 -0.039781
0.080691 -0.021272 -0.035215
0.080578 -0.019397 -0.036032
0.019606 -0.008546 0.014534
-0.074851 0.037233 -0.024729
-0.071058 0.033530 -0.024463
-0.061977 0.060278 0.029360
-0.011810 -0.002358 -0.000475
-0.011104 -0.003087 -0.000402
-0.008285 -0.004250 0.001008
-0.007676 -0.004355 0.001422
-0.012394 -0.002699 -0.001196
-0.034949 0.016539 0.002238
-0.032626 0.015282 0.003521
-0.017187 -0.002350 -0.006605
-0.014385 -0.003871 -0.005533
-0.014367 0.014608 0.007892
-0.013684 0.014367 0.008409
-0.012463 0.013747 0.008354
-0.011638 0.004765 0.014901
0.000509 -0.009131 0.006074
-0.000077 -0.008589 0.006065
0.000053 -0.008805 0.005701
0.017939 -0.033713 -0.017126
0.013565 -0.029685 -0.015701
-0.026832 -0.028836 -0.035594
-0.030921 -0.026403 -0.031598
-0.029911 -0.031801 -0.036452
-0.001458 -0.007341 0.008910
-0.000982 -0.007876 0.008390
-0.004809 -0.003671 0.002702
-0.005032 -0.003158 0.002302
-0.095022 0.067986 0.020946
-0.092784 0.068423 0.017334
0.124076 -0.073466 0.106328
0.122436 -0.067800 0.103534
0.145340 -0.063571 0.115733
0.131804 -0.063445 0.107392
-0.079778 0.095723 0.016833
-0.083293 0.093199 0.016816
-0.021582 0.017619 0.010878
-0.014467 -0.001487 -0.001928
-0.048841 0.071129 -0.000857
0.054391 -0.094952 -0.013807
0.046325 -0.099114 -0.005589
-0.000588 -0.008588 0.008188
0.052656 -0.089711 0.005943
0.053410 -0.092288 0.001046
-0.024083 0.005596 -0.003847
0.073187 -0.048844 0.036153
0.025710 0.098251 -0.031087
0.024709 0.100021 -0.030523
0.036837 0.098643 -0.026674
0.074924 -0.047328 0.038986
-0.015468 0.141720 -0.004465
-0.007182 0.136686 -0.002809
-0.019381 -0.003526 -0.012481
-0.024335 -0.000096 -0.012988
-0.019970 -0.002551 -0.011265
-0.018678 -0.004592 -0.013729
0.063699 -0.089559 -0.016147
-0.094615 0.094130 -0.070476
-0.078620 0.097218 -0.067239
-0.008057 0.020927 0.017414
-0.011415 0.022389 0.017562
-0.014559 0.025036 0.017081
-0.013499 0.017517 0.004515
0.039739 -0.043942 -0.003871
0.039362 -0.042225 -0.001747
0.042835 -0.045409 -0.001769
0.095863 -0.070047 -0.035046
-0.018172 0.030690 0.009964
-0.014254 0.025719 0.007852
-0.000718 -0.008838 0.008402
-0.001138 -0.008079 0.008720
-0.026494 0.006232 -0.005123
-0.023930 0.004965 -0.004186
-0.027955 0.002852 -0.012467
0.088186 -0.113696 -0.024251
0.089926 -0.114854 -0.018727
0.062371 -0.088832 -0.047610
0.069713 -0.093472 -0.040587
0.063719 -0.086859 -0.041844
0.002066 -0.011131 0.006398
0.001957 -0.010784 0.006626
0.002813 -0.011325 0.006207
0.067915 -0.031114 -0.021783
-0.168540 0.102440 0.075195
-0.010039 0.002690 -0.000435
-0.008210 0.002283 0.014528
-0.009316 0.004885 0.014284
-0.008498 0.001650 0.014736
-0.011416 -0.107245 -0.021825
0.041205 -0.065156 -0.044013
0.003655 -0.016425 -0.005011
0.001204 -0.012041 0.004800
0.002154 -0.012132 0.004734
-0.031834 0.006432 -0.011358
0.009908 -0.038878 0.035018
0.003063 -0.012896 0.000721
0.002281 -0.012867 -0.000198
-0.038649 0.021149 -0.048770
-0.041882 0.041749 -0.046729
0.036940 -0.010746 -0.012074
0.002205 0.000658 0.005503
0.011833 -0.004682 -0.003181
0.009507 -0.004175 -0.002799
0.008565 -0.003764 -0.002478
0.041489 -0.025362 0.018098
0.044626 -0.027024 0.019914
-0.053105 0.100902 -0.012575
-0.058613 0.100901 -0.030120
-0.055787 0.105737 -0.028486
-0.027206 0.107941 -0.027675
-0.000819 -0.002725 0.002069
-0.001772 -0.002418 0.001617
-0.010461 -0.004919 -0.002045
-0.008327 -0.006170 -0.001395
-0.017341 0.011415 0.014102
-0.016793 0.010310 0.014502
-0.015928 0.009597 0.014533
-0.079661 0.041107 -0.027534
0.075167 -0.041212 -0.022180
-0.001404 -0.017517 -0.014112
0.002479 -0.019339 -0.011989
-0.092594 0.042137 0.051622
-0.113913 0.047983 0.063626
-0.026074 0.008248 -0.003224
-0.018369 -0.000120 -0.004377
-0.015823 -0.001554 -0.003371
-0.017608 -0.000246 -0.003628
0.001274 -0.027986 -0.034782
0.005320 -0.029974 -0.031301
-0.060337 0.033238 -0.005725
0.003290 -0.022710 -0.059136
-0.000923 -0.021793 -0.060864
-0.056804 0.040770 0.020393
-0.067361 0.045941 0.025848
-0.063119 0.044334 0.022703
-0.024929 0.020570 0.011657
-0.023913 0.018574 0.012640
-0.023777 0.018948 0.011846
0.005392 -0.023568 -0.056903
0.027182 -0.032751 -0.003017
0.030274 -0.034032 -0.001223
0.026716 -0.031339 -0.001574
-0.099844 0.064527 -0.047687
-0.097725 0.060704 -0.042800
-0.017581 0.002156 -0.001992
-0.015616 0.001357 -0.001380
-0.017081 0.002422 -0.001739
-0.002242 -0.000386 -0.001046
0.000290 -0.001246 -0.001354
-0.002657 -0.010289 0.008399
-0.029959 0.116679 0.002280
0.070355 -0.077055 -0.008251
0.168619 -0.019859 -0.095699
0.173894 -0.026732 -0.097099
-0.014601 0.014181 0.009440
-0.036731 0.035133 0.015535
0.070831 -0.104857 -0.050479
0.018169 -0.029228 -0.008644
0.018595 -0.028815 -0.007378
-0.053828 0.090719 -0.039328
-0.021105 0.023518 0.006840
-0.021720 0.024090 0.008378
-0.019495 0.022433 0.007036
0.002338 -0.010545 0.005002
0.001061 -0.009748 0.004992
0.001463 -0.010128 0.004643
-0.052969 0.106310 0.007806
-0.005068 0.000973 0.010816
-0.004659 0.000192 0.010909
0.072626 -0.020919 -0.029619
-0.015162 0.018947 0.002640
-0.015896 0.019693 0.004369
-0.014466 0.018496 0.003064
-0.014275 0.107311 -0.029632
0.101079 -0.079453 -0.051026
0.101168 -0.076376 -0.046868
0.034321 -0.008143 -0.011374
0.029803 -0.006845 -0.009155
-0.002443 -0.009380 0.000441
0.131803 -0.045070 -0.062202
0.124850 -0.041856 -0.057621
-0.007107 0.000060 -0.000330
-0.008688 0.000344 -0.000328
-0.006707 -0.000449 -0.000024
0.012691 0.099721 -0.035294
-0.129020 -0.054675 0.017525
-0.130728 -0.060223 0.017409
-0.118567 -0.065630 0.022158
-0.072553 0.033273 -0.043861
-0.062733 0.023845 -0.042210
-0.067688 0.028488 -0.040099
-0.108181 0.066112 0.040677
-0.105633 0.066274 0.037434
-0.100349 0.063283 0.035651
0.004926 0.000496 0.003563
-0.014255 0.017766 0.000515
-0.016097 0.019310 0.002024
-0.015652 0.019135 0.002256
-0.013941 0.017744 0.000785
0.151062 -0.007319 -0.089414
0.160880 -0.013471 -0.093032
0.002167 -0.012402 0.003708
-0.012403 -0.082312 0.081950
0.035669 -0.009163 -0.011865
-0.001419 -0.006959 0.005887
-0.001678 -0.006498 0.005720
-0.001552 -0.006226 0.006055
-0.001357 -0.006704 0.006240
-0.008074 -0.012597 -0.068594
-0.001883 -0.006055 0.005528
0.067985 -0.031769 0.040077
-0.020961 0.023446 0.004687
-0.015319 0.017951 0.003053
-0.017602 -0.002617 -0.056187
-0.011044 0.000305 -0.062998
-0.007894 0.002862 -0.063618
-0.004430 -0.003802 0.011836
-0.017196 0.021228 0.002776
0.031165 -0.092347 0.061040
-0.015038 0.021972 0.001321
0.020521 0.148278 0.020136
-0.008081 -0.000297 0.000027
-0.007761 -0.000793 0.000355
-0.005404 -0.005506 0.012651
-0.004554 -0.006852 0.011725
0.155921 -0.038796 -0.081372
0.163812 -0.042322 -0.087288
0.161291 -0.035158 -0.086231
-0.015526 -0.013726 -0.062541
-0.013483 -0.015456 -0.062874
0.180454 -0.021833 -0.103248
-0.013006 -0.001999 -0.001140
-0.005031 0.008636 0.003013
-0.005715 0.008926 0.001388
0.076082 -0.081289 0.008294
-0.021434 0.002885 -0.004006
-0.019358 0.001894 -0.003124
-0.002734 -0.003220 0.002808
0.002683 -0.000199 -0.002699
-0.043893 -0.115202 0.077588
0.073331 -0.066856 0.030041
0.047027 -0.034753 0.015293
0.046482 -0.035495 0.014083
-0.010803 0.115582 -0.008269
-0.014582 0.118233 -0.004340
-0.122138 0.075069 0.045851
-0.076273 0.036418 -0.041012
-0.069928 0.030288 -0.037600
-0.077706 0.037516 -0.038102
-0.000370 0.118513 -0.009333
-0.074421 0.111129 0.026479
-0.077259 0.107553 0.025730
0.073705 -0.061045 0.031953
-0.010087 0.014931 0.002399
-0.009150 0.014584 -0.000279
-0.008829 0.013852 -0.003421
0.033505 -0.042925 -0.134458
0.037139 -0.023647 0.014948
-0.009795 0.014889 -0.000265
-0.135327 0.060644 0.071128
-0.119341 0.055536 0.062799
-0.029146 0.038381 0.027965
-0.017433 0.017356 0.027210
-0.086907 0.062810 -0.080200
-0.088606 0.059445 -0.069360
0.056424 -0.031616 0.028659
0.060167 -0.058336 0.005522
0.057875 -0.057303 0.003086
0.061324 -0.060400 0.004347
-0.076530 0.044535 -0.067031
-0.013612 0.002692 -0.001079
-0.011210 -0.003646 -0.001064
0.007909 -0.080920 0.034342
-0.053435 0.036245 0.014502
0.011370 -0.074322 0.044262
0.000083 -0.072860 0.044576
-0.013025 0.001960 -0.000933
-0.011963 0.010917 0.011734
-0.012719 0.010415 0.012564
0.056616 -0.052300 0.008293
0.055475 -0.050370 0.009019
0.053415 -0.049754 0.006774
-0.090532 0.069168 0.013694
-0.012437 -0.016913 -0.057599
-0.008560 -0.016821 -0.056851
-0.017638 -0.017627 -0.051411
0.098510 -0.040453 0.064043
0.095601 -0.038192 0.061984
0.075247 -0.063535 0.037257
0.001481 0.001558 -0.001866
0.000164 0.003299 -0.000860
-0.020679 -0.091427 -0.005683
0.001255 0.002904 0.000693
-0.106080 -0.048284 -0.106276
-0.098269 -0.052266 -0.098550
-0.090599 -0.043172 -0.100276
-0.072525 0.089037 -0.000117
-0.013319 0.015523 0.000776
0.028210 -0.010136 0.018274
0.022518 -0.006393 0.015907
0.022086 -0.007406 0.014475
-0.122750 0.026267 0.076106
-0.106119 0.036417 0.063141
-0.050997 0.028010 0.028047
-0.069530 0.035076 0.038251
-0.057490 0.034484 0.028049
-0.070286 0.094915 0.007606
-0.066460 0.098280 0.008221
-0.061420 0.098830 0.003599
0.024815 -0.086306 0.030861
0.034958 -0.087492 0.029676
0.079396 -0.033082 0.049685
0.084408 -0.035413 0.053208
-0.018234 0.021808 0.010454
-0.064409 0.096213 0.002847
-0.004772 -0.078600 0.034466
-0.012336 -0.004408 -0.003628
-0.009836 -0.005937 -0.003091
-0.009852 -0.005586 -0.002421
0.012110 -0.016817 0.003795
0.009853 -0.015755 0.003307
-0.001107 0.002280 -0.005883
0.011346 -0.016805 0.003140
0.012500 -0.016658 0.004330
0.011113 -0.036366 -0.056600
0.013804 -0.036128 -0.054561
0.011589 -0.037376 -0.058519
0.080116 -0.031379 0.051267
-0.079599 0.135590 0.032703
-0.055689 0.134112 0.012971
-0.067005 0.128317 0.024147
-0.037201 0.017588 0.000534
-0.099684 0.137550 0.049456
-0.005675 -0.000216 -0.013251
-0.005124 -0.000027 -0.012815
-0.085318 0.128192 0.038165
0.059959 -0.015644 -0.024220
-0.001195 -0.004560 0.007621
-0.000897 -0.004219 0.007054
0.040064 -0.109219 0.037901
-0.006072 0.009935 0.007644
-0.025123 0.028314 0.008569
-0.024296 0.031048 0.008989
-0.022977 0.029458 0.006605
0.014309 -0.036410 -0.052178
0.017332 -0.035601 -0.049104
0.015691 -0.034692 -0.051691
0.005021 -0.002871 0.000512
0.003798 -0.002672 0.000323
0.003287 -0.002713 0.000960
0.037670 -0.028919 0.011284
-0.022208 0.032850 0.007530
-0.000644 -0.065032 0.006574
-0.002970 -0.077431 0.007549
0.004356 -0.069035 0.013205
-0.018306 0.021804 0.008955
-0.004379 -0.005396 0.003408
-0.003929 -0.006047 0.003557
-0.004922 -0.005418 0.003012
0.004743 0.002997 0.007181
-0.004529 -0.005994 0.003068
-0.003263 -0.012451 0.004381
0.111779 0.016886 -0.076180
0.095923 0.021745 -0.067894
-0.012948 -0.107920 -0.027992
-0.015954 -0.108437 -0.020742
0.080473 0.016909 -0.055794
-0.048173 0.059209 0.017697
-0.044107 0.046235 0.017305
0.035440 -0.029491 0.000005
-0.012919 0.021828 0.017235
-0.014748 0.023687 0.017390
0.090320 -0.131225 -0.017180
0.090733 -0.125909 -0.016569
0.089622 -0.125121 -0.023205
-0.013926 -0.002491 -0.002497
-0.001941 -0.013744 0.021447
-0.013382 -0.002458 -0.001863
-0.011731 -0.003665 -0.001628
-0.015172 -0.087630 0.029203
0.069831 -0.113224 0.008884
0.037592 -0.027465 0.012376
0.035665 -0.026201 0.011732
0.035883 -0.026961 0.011318
-0.045046 0.023471 0.002074
-0.043226 0.021804 0.000812
0.003852 -0.000538 -0.001222
-0.029919 -0.069952 0.057349
-0.002678 -0.011902 0.005731
-0.003546 -0.011278 0.007189
-0.003140 -0.010716 0.007983
-0.045881 0.129397 0.009942
-0.080005 0.073051 -0.060445
-0.068942 0.094164 -0.052467
-0.025183 -0.093922 -0.036749
0.056677 -0.091784 0.023446
-0.042765 0.051222 -0.029798
-0.044687 0.041428 -0.037874
0.141952 -0.038815 -0.070867
0.026336 -0.016259 0.010074
0.074302 -0.039377 0.041817
0.060294 -0.085536 0.027399
0.063669 -0.087991 0.023687