# vtk DataFile Version 2.0
Simplicial Mesh Example
ASCII
DATASET UNSTRUCTURED_GRID
POINTS 23275 double
-4.370844e+04 -2.584006e+04 -2.468283e+05
-5.805435e+03 -3.992067e+04 -2.487119e+05
-4.780036e+03 -3.700826e+04 -2.492059e+05
-7.040411e+03 -3.583260e+04 -2.493126e+05
-2.560114e+04 -2.738626e+04 -2.491603e+05
-2.799007e+04 -2.931638e+04 -2.486849e+05
3.013014e+04 -6.910702e+04 -2.404587e+05
2.766214e+04 -6.677752e+04 -2.414102e+05
2.797045e+04 -7.113076e+04 -2.401293e+05
2.550214e+04 -6.880028e+04 -2.410805e+05
-7.411909e+03 -3.878293e+04 -2.488750e+05
-8.975188e+03 -3.796233e+04 -2.489429e+05
-9.399407e+03 -3.483731e+04 -2.493555e+05
-1.067684e+04 -3.723773e+04 -2.489635e+05
-5.610325e+04 -2.308233e+04 -2.445853e+05
-5.274350e+04 -2.392517e+04 -2.452399e+05
-5.366805e+04 -2.114412e+04 -2.453093e+05
-5.764680e+04 -2.006971e+04 -2.444955e+05
-1.254533e+04 -3.644208e+04 -2.489860e+05
-2.476559e+04 -3.052526e+04 -2.488935e+05
-2.236833e+04 -2.860074e+04 -2.493512e+05
2.517111e+04 -6.445185e+04 -2.423096e+05
-3.472110e+04 -2.730403e+04 -2.480873e+05
-3.559710e+04 -2.471760e+04 -2.482099e+05
-3.801012e+04 -2.671454e+04 -2.476468e+05
-1.190697e+04 -3.377935e+04 -2.494012e+05
1.764575e+04 -6.168752e+04 -2.436826e+05
2.006144e+04 -5.988194e+04 -2.439482e+05
1.741754e+04 -5.766504e+04 -2.446680e+05
-4.128431e+04 -2.384416e+04 -2.474460e+05
-4.396792e+04 -2.332084e+04 -2.470126e+05
2.046885e+04 -6.417718e+04 -2.428129e+05
2.300976e+04 -6.647398e+04 -2.419777e+05
2.263188e+04 -6.215571e+04 -2.431471e+05
-1.925271e+04 -3.338427e+04 -2.489991e+05
-4.101002e+04 -2.625417e+04 -2.472159e+05
-3.858858e+04 -2.425817e+04 -2.478081e+05
9.326098e+02 -4.512290e+04 -2.479013e+05
2.870364e+03 -4.282424e+04 -2.483038e+05
-3.230835e+04 -2.528460e+04 -2.486303e+05
-1.459812e+04 -3.556796e+04 -2.490108e+05
-1.442014e+04 -3.271902e+04 -2.494470e+05
1.701238e+02 -4.062464e+04 -2.486650e+05
-3.870227e+03 -4.129122e+04 -2.485154e+05
-2.483814e+03 -3.868578e+04 -2.489550e+05
-2.895449e+04 -2.633550e+04 -2.488953e+05
-3.135557e+04 -2.831021e+04 -2.483861e+05
-1.685328e+04 -3.460767e+04 -2.490380e+05
-1.683843e+04 -3.147733e+04 -2.494214e+05
5.113607e+03 -4.548782e+04 -2.477595e+05
3.176190e+03 -4.778301e+04 -2.473583e+05
7.356849e+03 -4.815140e+04 -2.472152e+05
-1.947300e+04 -3.010685e+04 -2.493879e+05
-2.187975e+04 -3.202188e+04 -2.489488e+05
-5.030010e+04 -2.197341e+04 -2.459347e+05
-4.944018e+04 -2.469309e+04 -2.458523e+05
-4.700193e+04 -2.272056e+04 -2.465171e+05
1.442309e+04 -5.898666e+04 -2.445519e+05
5.421934e+03 -5.044569e+04 -2.468148e+05
9.722639e+03 -5.069020e+04 -2.466348e+05
-1.531315e+03 -4.294767e+04 -2.482780e+05
-5.943741e+04 -2.217833e+04 -2.438818e+05
-4.639379e+04 -2.530754e+04 -2.463738e+05
1.225612e+04 -5.305825e+04 -2.460049e+05
1.478960e+04 -5.542630e+04 -2.453749e+05
1.121233e+04 -5.612486e+04 -2.453827e+05
8.099960e+03 -5.319331e+04 -2.461556e+05
-6.080548e+04 -1.918576e+04 -2.438003e+05
-6.275490e+04 -2.124888e+04 -2.431343e+05
3.160428e+04 -3.331874e+04 -2.477644e+05
2.941486e+04 -3.536006e+04 -2.477526e+05
2.987080e+04 -3.142743e+04 -2.482143e+05
2.767569e+04 -3.347089e+04 -2.482005e+05
3.325321e+04 -3.527048e+04 -2.472507e+05
3.106495e+04 -3.731255e+04 -2.472361e+05
4.264658e+04 -4.726883e+04 -2.438156e+05
4.045921e+04 -4.931990e+04 -2.437830e+05
4.107706e+04 -4.529266e+04 -2.444430e+05
3.655106e+04 -3.917397e+04 -2.462232e+05
3.436513e+04 -4.121755e+04 -2.462031e+05
3.490213e+04 -3.722223e+04 -2.467370e+05
3.271504e+04 -3.926505e+04 -2.467196e+05
4.616702e+04 -5.085919e+04 -2.424427e+05
3.809462e+04 -4.119169e+04 -2.456496e+05
3.958584e+04 -4.324218e+04 -2.450463e+05
3.740559e+04 -4.528417e+04 -2.450201e+05
5.021183e+04 -5.377735e+04 -2.410068e+05
5.026562e+04 -5.716887e+04 -2.402204e+05
4.802107e+04 -5.584758e+04 -2.409819e+05
4.591419e+04 -5.449067e+04 -2.417042e+05
4.810669e+04 -5.242433e+04 -2.417347e+05
4.397820e+04 -5.291661e+04 -2.424091e+05
-4.581157e+04 3.464393e+04 -2.453657e+05
-4.633777e+04 3.900463e+04 -2.446129e+05
-4.370657e+04 3.677835e+04 -2.454394e+05
2.058176e+04 -2.582338e+04 -2.497898e+05
2.453652e+04 -2.584920e+04 -2.494627e+05
2.233751e+04 -2.788854e+04 -2.494516e+05
4.221870e+04 -5.111826e+04 -2.430960e+05
4.440680e+04 -4.906401e+04 -2.431291e+05
5.297777e+04 -5.852130e+04 -2.393161e+05
5.817740e+04 -5.779827e+04 -2.382829e+05
5.512046e+04 -5.641225e+04 -2.393381e+05
5.605281e+04 -5.991611e+04 -2.382691e+05
3.591411e+04 -4.323297e+04 -2.456282e+05
2.809271e+04 -2.956802e+04 -2.486304e+05
2.589641e+04 -3.161023e+04 -2.486175e+05
3.889706e+04 -4.733537e+04 -2.444119e+05
2.631461e+04 -2.770861e+04 -2.490466e+05
2.411713e+04 -2.974957e+04 -2.490345e+05
2.064029e+04 -2.126244e+04 -2.502061e+05
1.653981e+04 -2.104288e+04 -2.505599e+05
-4.844380e+04 3.687166e+04 -2.445356e+05
1.424388e+04 -1.363727e+04 -2.511830e+05
1.198059e+04 -1.092534e+04 -2.514759e+05
9.727251e+03 -1.290554e+04 -2.514796e+05
1.650717e+04 -1.634921e+04 -2.508901e+05
1.429888e+04 -1.836616e+04 -2.508850e+05
1.203371e+04 -1.565228e+04 -2.511818e+05
1.868457e+04 -1.894967e+04 -2.505758e+05
-2.449615e+04 1.656712e+04 -2.502230e+05
-2.893697e+04 1.704145e+04 -2.497373e+05
-2.684310e+04 1.918995e+04 -2.498147e+05
-3.134341e+04 2.457614e+04 -2.488210e+05
-3.368542e+04 2.716904e+04 -2.482311e+05
-3.578462e+04 2.502768e+04 -2.481626e+05
-3.344144e+04 2.243190e+04 -2.487498e+05
-4.898542e+03 1.819867e+03 -2.519187e+05
-6.968177e+03 -3.280965e+02 -2.518771e+05
-8.029113e+03 3.477741e+03 -2.518012e+05
-3.605038e+04 2.973689e+04 -2.476179e+05
-3.815193e+04 2.759705e+04 -2.475504e+05
-3.854521e+04 3.215698e+04 -2.469339e+05
1.865792e+04 -2.354801e+04 -2.501563e+05
-3.600486e+03 -2.324236e+03 -2.519298e+05
-4.109461e+04 3.451147e+04 -2.462151e+05
-4.064728e+04 3.002005e+04 -2.468659e+05
3.810364e+01 -4.652884e+03 -2.519161e+05
1.141429e+03 -1.880650e+03 -2.519439e+05
4.126686e+03 -3.791323e+03 -2.519236e+05
-4.319804e+04 3.237626e+04 -2.461452e+05
-1.115968e+04 5.135615e+03 -2.516836e+05
-1.010047e+04 1.330941e+03 -2.517470e+05
-2.909325e+04 2.188305e+04 -2.493178e+05
-3.118920e+04 1.973667e+04 -2.492436e+05
-1.323276e+04 2.989979e+03 -2.516169e+05
-1.406821e+04 7.133674e+03 -2.514692e+05
6.806608e+03 -6.091452e+03 -2.517962e+05
3.590208e+03 -7.193551e+03 -2.518506e+05
-1.689380e+04 9.258793e+03 -2.512187e+05
-1.614731e+04 4.982549e+03 -2.513966e+05
5.250561e+04 -5.511115e+04 -2.402213e+05
-1.843829e+03 3.002275e+01 -2.519643e+05
9.398318e+03 -8.504095e+03 -2.516380e+05
-1.971939e+04 1.138391e+04 -2.509682e+05
-2.180127e+04 9.235982e+03 -2.508834e+05
-1.897429e+04 7.109265e+03 -2.511400e+05
2.259600e+04 -2.357522e+04 -2.498364e+05
6.804226e+03 -1.018496e+04 -2.516563e+05
-2.658673e+04 1.441760e+04 -2.501423e+05
-2.211115e+04 1.397190e+04 -2.505966e+05
-2.420008e+04 1.182030e+04 -2.505144e+05
-1.007482e+04 4.862302e+04 -2.470588e+05
-1.299191e+04 5.046964e+04 -2.465523e+05
-1.513111e+04 4.840552e+04 -2.468440e+05
-1.219578e+04 4.654685e+04 -2.473624e+05
2.878391e+04 1.643615e+04 -2.497617e+05
3.107771e+04 1.844028e+04 -2.493476e+05
3.329156e+04 1.687649e+04 -2.491717e+05
3.069005e+04 1.518312e+04 -2.496280e+05
2.856239e+04 2.021702e+04 -2.495475e+05
3.390001e+04 1.294647e+04 -2.493463e+05
3.543166e+04 1.536479e+04 -2.490016e+05
3.229361e+04 1.412900e+04 -2.495156e+05
6.052631e+04 -1.872076e+03 -2.446049e+05
5.847886e+04 -3.870189e+03 -2.450651e+05
5.730419e+04 2.046281e+02 -2.453648e+05
7.359392e+02 4.003579e+04 -2.487685e+05
3.138329e+03 3.753498e+04 -2.491563e+05
-1.313027e+03 3.790168e+04 -2.491027e+05
5.338454e+04 2.966652e+03 -2.462515e+05
5.530927e+04 -1.951200e+03 -2.458324e+05
4.887197e+04 5.924998e+03 -2.470949e+05
4.682850e+04 3.839578e+03 -2.475456e+05
5.154108e+04 6.547826e+02 -2.466328e+05
4.446442e+04 8.794021e+03 -2.478870e+05
1.915131e+04 2.453101e+04 -2.500633e+05
1.726678e+04 2.235442e+04 -2.503773e+05
2.049937e+04 2.098658e+04 -2.502386e+05
1.611619e+04 2.624758e+04 -2.500671e+05
7.012962e+04 -4.035402e+03 -2.420113e+05
-1.679726e+03 4.252160e+04 -2.483793e+05
-4.417734e+03 4.464320e+04 -2.479573e+05
-3.774035e+03 4.037706e+04 -2.487081e+05
7.331666e+04 -2.963847e+03 -2.410783e+05
2.233496e+04 2.311281e+04 -2.498929e+05
2.371482e+04 1.962599e+04 -2.501006e+05
6.358470e+04 -3.349198e+03 -2.438047e+05
6.145609e+04 -5.593090e+03 -2.443170e+05
6.474892e+04 -6.143102e+03 -2.434462e+05
3.779376e+04 1.366345e+04 -2.487454e+05
3.595818e+04 1.139390e+04 -2.491126e+05
7.640565e+04 -1.647825e+03 -2.401322e+05
7.446523e+04 -3.778324e+03 -2.407170e+05
7.134782e+04 -5.111396e+03 -2.416338e+05
7.772021e+03 3.235200e+04 -2.497520e+05
5.692990e+03 3.010249e+04 -2.501029e+05
-6.498066e+03 4.254658e+04 -2.482809e+05
-7.199065e+03 4.670185e+04 -2.475224e+05
-9.297994e+03 4.461915e+04 -2.478384e+05
5.468393e+03 3.495750e+04 -2.494681e+05
3.416076e+03 3.276003e+04 -2.497980e+05
1.139161e+03 3.541757e+04 -2.494931e+05
3.863839e+04 9.372096e+03 -2.488082e+05
6.677089e+04 -4.152610e+03 -2.429471e+05
6.810909e+04 -6.126528e+03 -2.425392e+05
2.648087e+04 1.795009e+04 -2.499232e+05
2.551861e+04 2.169462e+04 -2.497225e+05
1.413931e+04 2.392070e+04 -2.504419e+05
4.074577e+04 1.150855e+04 -2.483655e+05
4.218662e+04 6.868283e+03 -2.483163e+05
1.008318e+04 2.975549e+04 -2.500331e+05
8.265197e+03 2.777228e+04 -2.503026e+05
1.309968e+04 2.800153e+04 -2.500501e+05
1.120226e+04 2.584649e+04 -2.503722e+05
5.086577e+04 3.344514e+04 -2.445222e+05
4.925149e+04 3.280912e+04 -2.449510e+05
5.133941e+04 3.475465e+04 -2.442541e+05
4.994557e+04 3.404279e+04 -2.446299e+05
2.454394e+04 6.055377e+04 -2.433353e+05
2.792594e+04 6.096171e+04 -2.428622e+05
2.286108e+04 6.249609e+04 -2.430409e+05
2.621040e+04 6.294216e+04 -2.425600e+05
2.956563e+04 5.465030e+04 -2.442024e+05
2.790970e+04 5.666909e+04 -2.439243e+05
1.937169e+04 6.624568e+04 -2.423184e+05
2.091731e+04 6.872412e+04 -2.414993e+05
2.270633e+04 6.682363e+04 -2.418788e+05
5.549665e+04 3.190791e+04 -2.436892e+05
5.489104e+04 3.070410e+04 -2.439820e+05
5.272723e+04 3.380146e+04 -2.440667e+05
[...]
POINT_DATA 23275
VECTORS displacement double
0.079932 0.022634 0.091761
0.081716 -0.045871 0.037480
0.084090 -0.041508 0.041081
0.085386 -0.036862 0.049373
0.083851 -0.008854 0.085743
0.083206 -0.003276 0.090295
0.104441 -0.007915 -0.043155
0.103362 -0.010999 -0.037920
0.102639 -0.002157 -0.046918
0.104053 -0.009585 -0.040185
0.083899 -0.042145 0.046820
0.085895 -0.035887 0.054911
0.085997 -0.032688 0.055648
0.086649 -0.033078 0.061125
0.071880 0.009462 0.084921
0.072863 0.015370 0.089723
0.076373 0.009067 0.085700
0.077605 0.005154 0.081059
0.086549 -0.031330 0.066958
0.081854 -0.015626 0.088891
0.083116 -0.018632 0.082404
0.101311 -0.014703 -0.033692
0.083248 0.013318 0.091829
0.085937 0.014015 0.086379
0.083776 0.020487 0.090058
0.085796 -0.030570 0.061401
0.096823 -0.023060 -0.024704
0.096044 -0.021927 -0.025414
0.093274 -0.025271 -0.021485
0.083933 0.017950 0.085534
0.082122 0.017217 0.086505
0.099950 -0.018878 -0.029845
0.102519 -0.014410 -0.034620
0.098781 -0.018423 -0.029530
0.082118 -0.028557 0.081712
0.082328 0.023038 0.090375
0.085443 0.017427 0.085223
0.081652 -0.043342 0.006716
0.081245 -0.043765 0.010115
0.085647 0.007874 0.087112
0.085670 -0.029450 0.072477
0.084688 -0.029526 0.066518
0.082041 -0.044041 0.021120
0.082449 -0.044435 0.029996
0.082761 -0.043453 0.031320
0.084794 0.000180 0.086904
0.083418 0.004604 0.092309
0.083711 -0.029797 0.077362
0.083507 -0.028618 0.071683
0.081874 -0.041655 0.000974
0.082409 -0.040794 -0.002049
0.083317 -0.038265 -0.005428
0.082949 -0.025507 0.077100
0.081383 -0.025079 0.085936
0.077726 0.013049 0.087247
0.074914 0.019161 0.091904
0.079784 0.015591 0.087410
0.093120 -0.027267 -0.019582
0.083671 -0.037567 -0.006626
0.085248 -0.034902 -0.009951
0.082341 -0.044049 0.019263
0.074922 0.000752 0.073270
0.077467 0.021252 0.092478
0.087678 -0.031809 -0.013959
0.090442 -0.028528 -0.017784
0.089452 -0.031009 -0.014970
0.086148 -0.034274 -0.010366
0.083727 0.001492 0.074603
0.091035 -0.017854 0.051492
0.060025 -0.013083 -0.014048
0.063922 -0.011129 -0.014695
0.059789 -0.015354 -0.012918
0.063648 -0.013775 -0.013437
0.060586 -0.010907 -0.015564
0.064324 -0.008439 -0.016288
0.066017 -0.002882 -0.032173
0.068819 -0.000049 -0.032792
0.064834 -0.003350 -0.028401
0.061910 -0.007053 -0.019385
0.065477 -0.003676 -0.020353
0.061168 -0.008881 -0.017385
0.064840 -0.005994 -0.018424
0.069358 -0.002348 -0.037848
0.062807 -0.005479 -0.021901
0.063786 -0.004241 -0.024900
0.067031 -0.000260 -0.025496
0.074841 -0.001062 -0.040111
0.081036 -0.004142 -0.040307
0.077249 -0.004608 -0.040337
0.074201 -0.004102 -0.039940
0.071834 -0.001861 -0.039459
0.071939 -0.002650 -0.038345
0.135034 0.086077 0.022955
0.137107 0.089925 0.016602
0.133304 0.086863 0.018153
0.065260 -0.022462 -0.006931
0.060813 -0.022290 -0.009484
0.064389 -0.020337 -0.008862
0.070048 -0.001110 -0.035998
0.067410 -0.002592 -0.035352
0.085726 -0.001926 -0.040996
0.084326 0.003896 -0.043771
0.081643 0.002270 -0.040926
0.089462 0.003254 -0.044168
0.066257 -0.001685 -0.022610
0.059857 -0.017616 -0.011817
0.063552 -0.016237 -0.012106
0.067815 0.000354 -0.028944
0.060178 -0.019934 -0.010729
0.063749 -0.018463 -0.010711
0.062923 -0.027830 -0.006885
0.068082 -0.028516 -0.003530
0.137802 0.090437 0.021385
0.067801 -0.037878 -0.006728
0.069461 -0.041362 -0.008788
0.073799 -0.042961 -0.001448
0.065866 -0.034166 -0.005889
0.069933 -0.032638 -0.002399
0.072046 -0.037461 -0.001692
0.064236 -0.030713 -0.006045
0.098608 0.063480 0.042057
0.104079 0.059651 0.043337
0.102837 0.065755 0.038578
0.111892 0.071274 0.031036
0.116471 0.074216 0.027698
0.118554 0.069573 0.032395
0.113745 0.065849 0.035644
0.081973 0.050330 0.043046
0.084372 0.035202 0.063187
0.083545 0.054029 0.043743
0.120899 0.077352 0.024680
0.123091 0.073776 0.029363
0.125208 0.080516 0.022088
0.066515 -0.025167 -0.005222
0.082863 -0.000176 0.068054
0.129359 0.083698 0.019891
0.127470 0.077852 0.026859
0.080643 -0.052434 0.034425
0.077945 -0.059126 0.000412
0.075687 -0.053058 -0.014017
0.131460 0.082023 0.024684
0.085073 0.055931 0.046246
0.085452 0.046504 0.059550
0.107357 0.068328 0.034733
0.108914 0.062418 0.039309
0.086205 0.051254 0.058963
0.086515 0.057535 0.047611
0.073648 -0.049217 -0.012586
0.078257 -0.055711 0.007036
0.088610 0.058964 0.047987
0.087441 0.053680 0.058182
0.078199 0.000401 -0.040440
0.079961 0.032632 0.053784
0.071589 -0.045309 -0.010537
0.091230 0.059884 0.048139
0.091890 0.055174 0.054823
0.089414 0.055079 0.056465
0.061739 -0.024972 -0.008003
0.076190 -0.049241 0.000480
0.099682 0.057601 0.047276
0.094682 0.061647 0.045286
0.095544 0.056107 0.051157
0.066041 0.098347 -0.046689
0.073684 0.098118 -0.041691
0.082810 0.090122 -0.031643
0.071145 0.098488 -0.041747
0.012446 -0.041792 -0.123470
0.005249 -0.037533 -0.120472
0.001798 -0.045107 -0.117808
0.009610 -0.049574 -0.120157
0.009425 -0.028218 -0.123176
0.004283 -0.058633 -0.115776
-0.001397 -0.051544 -0.114643
0.006785 -0.053983 -0.118241
-0.018218 -0.097420 -0.055189
-0.012845 -0.108495 -0.060420
-0.018912 -0.095510 -0.065621
0.045350 0.092124 -0.071328
0.040757 0.089526 -0.077424
0.050661 0.095411 -0.065796
-0.017718 -0.092272 -0.075219
-0.012505 -0.104427 -0.067919
-0.014388 -0.087264 -0.084955
-0.007578 -0.094742 -0.085447
-0.010883 -0.100070 -0.075960
-0.010466 -0.079249 -0.094660
0.024412 0.009268 -0.125390
0.030072 0.007870 -0.133578
0.026714 -0.011776 -0.131347
0.027249 0.029570 -0.121661
-0.020245 -0.090027 -0.024522
0.049931 0.094046 -0.065818
0.055083 0.095921 -0.059677
0.055761 0.097218 -0.060905
-0.033082 -0.078941 -0.033124
0.020229 -0.007242 -0.125837
0.022020 -0.023911 -0.128483
-0.016441 -0.099655 -0.041548
-0.009383 -0.115501 -0.046922
-0.010944 -0.114180 -0.031963
-0.004306 -0.059019 -0.110233
0.001659 -0.065893 -0.111769
-0.045091 -0.075133 -0.043000
-0.039593 -0.067191 -0.041200
-0.020154 -0.090586 -0.023602
0.033904 0.078297 -0.093303
0.039019 0.084693 -0.091201
0.060529 0.099063 -0.055398
0.060233 0.097567 -0.053119
0.065332 0.100166 -0.048865
0.036721 0.085607 -0.084356
0.041326 0.090640 -0.079524
0.045706 0.093265 -0.072148
-0.001052 -0.075571 -0.105608
-0.016240 -0.097780 -0.028918
-0.013628 -0.105312 -0.021119
0.016407 -0.032405 -0.126749
0.015013 -0.018944 -0.125143
0.032938 0.031896 -0.130940
-0.007261 -0.068431 -0.103561
-0.003831 -0.086267 -0.096321
0.032358 0.066556 -0.104453
0.038348 0.071418 -0.107297
0.029718 0.049470 -0.114404
0.034888 0.054088 -0.120813
-0.073719 -0.031340 -0.105521
-0.069283 -0.030532 -0.107844
-0.076583 -0.028887 -0.103588
-0.072726 -0.028302 -0.105559
-0.033801 0.037186 -0.078234
-0.043885 0.032362 -0.081118
-0.030138 0.040581 -0.077098
-0.040263 0.035710 -0.079879
-0.043815 0.026171 -0.082245
-0.040700 0.030137 -0.080796
-0.022199 0.047134 -0.074403
-0.028190 0.045475 -0.076215
-0.032426 0.042338 -0.077399
-0.080133 -0.041558 -0.102042
-0.077121 -0.043976 -0.104299
-0.077918 -0.033145 -0.103338
-0.074982 -0.035547 -0.105387
-0.076134 -0.039777 -0.104982
-0.066815 -0.019266 -0.105484
-0.064280 -0.012918 -0.103613
-0.079107 -0.037370 -0.102844
-0.071489 -0.012260 -0.101225
-0.053657 0.021592 -0.085479
-0.046891 0.022239 -0.083671
-0.047372 0.028834 -0.082502
-0.050678 0.025162 -0.083994
0.000453 0.060123 -0.069390
0.005604 0.063072 -0.068679
-0.076530 -0.073364 -0.094733
-0.076846 -0.078382 -0.089605
-0.083363 -0.064059 -0.091438
-0.083720 -0.069204 -0.087113
0.016766 0.072704 -0.067698
0.009390 0.068751 -0.069691
0.020134 0.079951 -0.068398
0.014055 0.074005 -0.067308
-0.009894 0.056493 -0.072661
-0.005166 0.059081 -0.072013
-0.004363 0.057672 -0.070091
-0.076324 -0.067899 -0.098741
-0.082830 -0.059227 -0.094810
-0.075738 -0.063179 -0.101533
-0.068107 -0.005333 -0.098954
-0.037380 0.033820 -0.079426
-0.013490 0.052626 -0.072111
-0.023783 0.048439 -0.075196
-0.014635 0.053854 -0.073365
-0.081510 -0.050298 -0.099329
-0.078976 -0.057431 -0.099793
-0.008981 0.055131 -0.071030
-0.078412 -0.052225 -0.101932
-0.019246 0.051196 -0.074264
-0.026256 0.043991 -0.075727
-0.036503 0.038980 -0.078738
-0.000493 0.061794 -0.071406
0.011400 0.067139 -0.068229
0.004285 0.064825 -0.070747
-0.075467 -0.023904 -0.103331
-0.068502 -0.024796 -0.106853
-0.079031 -0.082372 -0.070095
-0.059687 -0.006145 -0.100453
-0.080938 -0.045835 -0.100869
-0.077592 -0.048152 -0.103462
-0.074143 -0.048402 -0.106632
-0.086090 -0.079157 -0.071563
-0.017946 0.050024 -0.073185
-0.073855 -0.018372 -0.102581
-0.050090 0.018045 -0.085648
-0.059783 0.013077 -0.089801
-0.056796 0.017645 -0.087384
-0.075082 -0.058389 -0.103912
-0.074746 -0.053045 -0.105639
-0.070813 -0.035362 -0.107860
-0.082114 -0.054848 -0.097371
-0.052889 0.013344 -0.088386
-0.086118 -0.075279 -0.062430
-0.072123 -0.039642 -0.107684
-0.073210 -0.044007 -0.107273
-0.088175 -0.079727 -0.068399
-0.077328 -0.084035 -0.077692
-0.056299 0.008244 -0.092057
-0.065911 0.001775 -0.095726
-0.063078 0.008007 -0.092624
-0.084304 -0.073497 -0.082007
-0.077024 -0.082054 -0.083993
-0.084897 -0.076917 -0.076753
-0.093013 -0.077131 -0.067267
-0.058814 0.001575 -0.096100
-0.155726 -0.055805 -0.064776
-0.096722 -0.053174 -0.043000
0.139990 -0.033632 -0.116493
0.030898 0.119861 0.065779
-0.080784 0.247826 0.225070
-0.089450 0.251644 0.204813
0.044323 0.124564 0.053666
0.153312 -0.020928 -0.121563
0.022343 0.143740 0.075768
0.160209 -0.014842 -0.125055
0.042129 0.128900 0.050893
-0.093261 0.250885 0.196033
0.047947 0.130349 0.049146
-0.087603 0.251367 0.209618
0.149345 -0.025592 -0.119827
0.021052 0.140566 0.075102
0.179956 0.058489 -0.097295
0.178018 0.060315 -0.091763
-0.082259 0.215999 0.119758
-0.074877 0.203532 0.104684
-0.181116 -0.108239 -0.066072
-0.175749 -0.095283 -0.065100
-0.094444 0.250738 0.192182
-0.091136 0.250263 0.200479
0.134958 -0.036040 -0.114793
0.037789 0.110790 0.064284
0.036663 0.101515 0.064431
0.024120 0.127991 0.080440
0.137277 -0.035550 -0.115145
-0.077978 0.244912 0.231150
0.143676 -0.030721 -0.117082
0.034524 0.124319 0.062681
0.067092 0.130936 0.017085
0.180124 0.027028 -0.126976
-0.094645 0.238225 0.163921
0.055495 0.141244 0.030812
0.177935 0.019612 -0.129612
0.165959 0.058327 -0.071249
0.150273 0.052293 -0.056226
-0.060231 0.177476 0.085453
-0.050431 0.145565 0.075994
0.123829 -0.034317 -0.112671
-0.056754 0.218518 0.264626
0.124998 -0.033173 -0.115796
-0.060720 0.223916 0.254092
0.183741 0.052783 -0.110651
0.165647 -0.004418 -0.127984
0.053823 0.135112 0.044182
-0.090030 0.228989 0.145250
0.182692 0.045087 -0.117346
-0.086874 0.222535 0.132094
0.183767 0.048486 -0.113677
0.128335 0.037654 -0.033084
0.040159 0.063684 0.043721
0.098311 0.031364 0.006719
-0.168966 -0.079694 -0.066542
0.182815 0.035658 -0.123945
-0.092236 0.232844 0.154336
-0.092011 0.233754 0.159208
-0.061181 -0.058148 -0.029402
-0.032770 -0.068724 -0.018266
-0.080535 0.210638 0.112950
0.162749 -0.010240 -0.126316
-0.070574 0.236460 0.243425
0.037762 0.093668 0.058579
0.131824 -0.036252 -0.113608
-0.094521 0.240039 0.171596
0.176650 0.014716 -0.129067
0.175131 0.011718 -0.129446
-0.085252 0.218637 0.127276
0.183195 0.056225 -0.105257
-0.065021 0.231817 0.249440
0.146762 -0.028604 -0.118384
-0.085673 0.250298 0.214604
-0.089009 0.224797 0.138845
-0.178863 -0.096689 -0.093097
-0.168165 -0.106906 -0.072176
0.074010 -0.157370 0.062583
0.120423 -0.107166 0.316517
-0.125492 -0.089588 -0.162953
0.117403 0.060431 -0.138353
0.123020 0.020199 -0.119826
0.125548 0.045456 -0.131324
-0.090673 0.229950 0.150453
-0.083685 0.249114 0.219539
0.181520 -0.260264 0.196354
-0.038775 -0.081972 -0.202096
-0.110341 -0.116547 -0.175297
0.084857 -0.031022 0.315458
0.093413 -0.050223 0.317929
-0.069217 -0.111054 -0.192587
0.055671 0.014175 0.295438
0.121868 -0.027682 -0.119379
-0.051335 0.209334 0.274588
-0.045735 0.195868 0.284681
0.173131 0.060306 -0.083501
-0.066587 0.192187 0.095667
0.118935 -0.022229 -0.117319
0.064317 0.002955 0.302891
-0.051014 -0.092630 -0.194993
-0.168504 -0.058452 -0.092786
0.170768 -0.256924 0.126482
0.164579 -0.249879 0.116933
-0.128447 -0.078380 -0.155918
-0.131346 -0.067086 -0.145773
0.141897 -0.161865 0.296418
-0.140405 -0.063653 -0.145086
-0.145041 -0.057961 -0.135481
0.159646 -0.204999 0.273540
-0.168716 -0.084558 -0.085547
-0.094620 0.242261 0.175245
0.049439 -0.004516 0.269420
0.069063 0.047483 -0.177823
0.169432 0.001729 -0.126855
-0.093651 0.247805 0.184552
-0.094538 0.249428 0.188408
0.052023 0.122963 0.026702
-0.094919 0.244682 0.179570
0.172729 0.007380 -0.129106
0.104121 0.069987 -0.150912
0.046421 -0.018027 0.281910
0.058594 0.041096 -0.186153
0.035462 0.005506 -0.191538
0.055943 -0.025845 0.270650
0.002299 -0.027299 -0.201329
0.016200 -0.014383 -0.201540
0.051424 -0.006357 0.269565
0.181230 0.031604 -0.126123
0.057213 -0.032071 0.265952
0.095348 0.068290 -0.158850
0.052911 -0.024470 0.269997
0.115629 -0.015731 -0.118658
-0.039451 0.183026 0.288947
-0.025490 0.166810 0.289909
0.130873 -0.207991 0.095711
-0.165183 -0.049728 -0.115646
0.182464 0.039097 -0.122249
0.127083 0.012951 -0.130674
-0.010171 0.122168 0.304180
0.033822 0.013431 0.296498
0.124553 0.002446 -0.133320
-0.017017 0.138273 0.304214
0.040725 -0.004570 0.289072
0.110599 0.065915 -0.144464
0.145509 -0.226490 0.095509
-0.185039 -0.119597 -0.064256
-0.007433 -0.079431 -0.004910
0.156682 -0.241968 0.107409
0.157588 -0.017916 -0.123260
0.081554 0.057116 -0.164381
0.050967 -0.027683 0.275033
0.047551 0.017880 0.283032
0.006775 0.075035 0.297948
-0.025528 0.111779 0.079988
-0.095050 0.240436 0.169045
-0.022621 -0.068743 -0.201465
0.045613 0.006823 0.280411
0.041382 0.022271 0.278949
0.050494 0.017552 0.293375
-0.169880 -0.055258 -0.096266
0.175436 -0.261362 0.138732
0.178665 -0.264359 0.152395
-0.160532 -0.050752 -0.119004
-0.167924 -0.061633 -0.090837
-0.117024 -0.093659 -0.162995
0.014716 0.055092 0.307510
0.127499 0.057370 -0.137228
-0.150890 -0.054051 -0.129000
-0.171171 -0.051051 -0.103892
0.130394 -0.133429 0.309310
0.018265 -0.096796 0.015803
-0.168077 -0.071983 -0.090562
0.026701 0.030190 0.306517
-0.091810 -0.118405 -0.183660
0.180127 -0.254469 0.210435
-0.188008 -0.126302 -0.071724
0.050169 -0.116903 0.048802
-0.005719 0.108937 0.297642
-0.116184 -0.107803 -0.172399
-0.171108 -0.053046 -0.100655
0.113094 -0.188449 0.094919
0.167178 -0.221755 0.256804
0.178272 -0.248143 0.225250
0.182545 -0.264325 0.179153
-0.169421 -0.050343 -0.106718
0.181017 -0.264910 0.165892
0.172413 -0.234410 0.245124
-0.158252 -0.052839 -0.127905
-0.168860 -0.050564 -0.113352
0.107539 -0.081229 0.313240
-0.100876 -0.117568 -0.178549
0.073988 -0.013890 0.308517
-0.074152 0.240663 0.236748
0.150135 -0.183096 0.289848
0.127672 -0.036212 -0.111668
-0.081080 -0.116504 -0.188325
0.001363 0.058433 0.005650
0.145816 0.046925 -0.007311
-0.001169 0.057932 0.021925
0.134629 0.042858 -0.000439
0.000513 0.057618 0.013255
0.095290 0.033228 0.032617
0.054763 0.051366 0.065393
-0.025539 0.081295 0.066748
-0.005907 0.058656 0.031449
0.118911 0.037017 0.010960
-0.007311 0.062907 0.043830
0.114206 -0.011382 -0.099541
0.078377 0.043999 -0.036123
0.110439 -0.009356 -0.094469
0.018266 0.066631 -0.041780
0.186618 0.059635 0.002845
0.184650 0.060890 -0.001031
0.116708 -0.012720 -0.106345
0.086857 0.038433 -0.036070
0.004194 0.062832 -0.013425
0.167353 0.055739 -0.010532
0.024766 0.065547 -0.049614
0.030979 0.066211 -0.056658
0.184092 0.053590 0.009298
0.186242 0.057501 0.005817
-0.083822 -0.071322 -0.127223
-0.050705 -0.023040 -0.001695
-0.078919 -0.080547 -0.123234
0.073304 0.076470 -0.096073
0.148410 0.009666 -0.009077
-0.058914 -0.015222 -0.089032
-0.017517 -0.043327 -0.041506
-0.017441 -0.044011 -0.041704
-0.065712 -0.013948 -0.090645
-0.017837 -0.042105 -0.040660
-0.062408 -0.014475 -0.089689
-0.017652 -0.042705 -0.041140
0.065430 0.074855 -0.088082
0.153702 0.012731 -0.001349
0.068581 0.074375 -0.091454
0.139841 0.005049 -0.017261
-0.020792 -0.039805 -0.035119
-0.077277 -0.012962 -0.096271
-0.079179 -0.014215 -0.099460
0.001770 0.060493 -0.003062
-0.073419 -0.089004 -0.116804
-0.058221 -0.024067 -0.000169
-0.064332 -0.023984 -0.000561
-0.013391 0.095198 0.088605
0.158333 0.019760 0.004882
0.175799 0.058850 -0.008283
0.008080 0.064630 -0.023689
-0.068929 -0.013555 -0.091606
-0.018713 -0.041591 -0.040309
-0.071803 -0.013247 -0.092832
-0.019791 -0.041519 -0.039652
-0.044592 -0.017613 -0.089077
-0.017328 -0.047543 -0.039769
-0.017660 -0.046580 -0.041048
-0.048377 -0.016977 -0.088277
-0.081739 -0.014230 -0.101600
-0.021916 -0.039728 -0.033282
-0.017608 -0.045857 -0.041431
0.063187 0.066941 -0.082676
-0.040853 -0.017895 -0.090315
-0.016918 -0.048788 -0.037899
-0.035682 -0.028705 -0.008390
-0.093304 -0.037695 -0.126144
-0.091159 -0.048483 -0.128846
-0.041628 -0.030038 -0.005727
-0.084232 -0.015221 -0.104040
-0.024920 -0.039385 -0.032762
0.097018 0.044766 -0.132756
0.104199 0.033290 -0.134022
0.112629 0.015298 -0.029624
0.117584 0.010616 -0.025271
0.091682 0.058111 -0.128169
0.120674 0.008777 -0.028944
-0.088665 -0.045673 -0.018280
0.085600 0.005283 -0.095291
0.060088 0.044335 -0.013400
-0.064698 -0.086985 -0.068454
-0.056507 -0.096771 -0.079607
-0.084708 -0.037489 -0.007630
0.107498 0.021421 -0.136228
0.113882 0.003945 -0.130735
0.101600 0.025845 -0.028113
-0.055468 -0.015813 -0.088528
-0.017492 -0.044936 -0.041689
-0.087096 -0.017323 -0.107121
-0.094189 -0.027575 -0.121663
-0.030605 -0.036600 -0.017203
-0.032361 -0.032437 -0.012496
0.082778 0.073304 -0.108680
0.132774 0.002354 -0.023998
0.126866 0.001669 -0.028264
0.077285 0.075754 -0.100840
-0.057944 -0.101208 -0.090185
0.038036 0.065246 -0.063624
0.180515 0.048181 0.011511
0.082543 0.041528 -0.037795
0.157660 0.051571 -0.011184
0.116588 -0.003246 -0.122301
0.097985 0.032423 -0.035611
0.092500 0.037283 -0.036940
0.088863 0.066385 -0.119892
0.122846 0.004883 -0.027599
0.117184 -0.008387 -0.116112
-0.052108 -0.016514 -0.088147
0.165727 0.028248 0.009467
-0.074388 -0.013241 -0.094020
-0.020286 -0.040619 -0.037839
-0.062327 -0.100016 -0.100207
-0.072162 -0.027307 -0.001004
-0.079130 -0.031630 -0.003225
-0.092519 -0.023283 -0.117543
-0.091201 -0.019239 -0.112600
0.050287 0.066901 -0.074516
0.177278 0.043526 0.011897
0.172831 0.036199 0.012394
0.073850 0.046321 -0.032135
0.106372 -0.006833 -0.091017
0.070589 0.047190 -0.027612
-0.032581 -0.018139 -0.093089
-0.016778 -0.050049 -0.034361
-0.016671 -0.049274 -0.035838
-0.088702 -0.056793 -0.128871
-0.045011 -0.024116 -0.002948
0.016704 -0.006320 -0.123080
0.005369 -0.013768 -0.116941
-0.002481 -0.034790 -0.012810
0.107065 0.023474 -0.031010
-0.036754 -0.017688 -0.092086
-0.028657 -0.018389 -0.094048
-0.016731 -0.050236 -0.032787
0.181145 0.060538 -0.004778
0.056768 0.066391 -0.079745
0.046024 0.063928 -0.068956
0.055744 0.016334 -0.120465
-0.009581 -0.016730 -0.105434
-0.013847 -0.017660 -0.103709
-0.014707 -0.049559 -0.026222
-0.067571 -0.096408 -0.109082
0.013160 0.065515 -0.033147
-0.025271 -0.018233 -0.095457
0.071513 0.013450 -0.108204
0.051059 0.037345 -0.007597
0.036902 0.019477 -0.002473
0.018564 -0.004730 -0.004835
-0.019974 -0.018244 -0.099354
-0.015477 -0.049658 -0.030288
-0.080749 -0.053894 -0.030846
-0.025391 -0.037152 -0.028465
0.033804 0.002700 -0.129732
0.094041 0.001956 -0.092122
0.005544 -0.022123 -0.009591
0.065946 0.072887 -0.088339
-0.024317 -0.036693 -0.022498
-0.027593 -0.035760 -0.020044
0.067194 0.049174 -0.022903
0.101147 -0.003735 -0.088440
-0.009438 -0.043923 -0.018563
-0.012797 -0.048014 -0.022740
-0.004063 -0.014111 -0.108592
0.115441 0.111338 -0.023245
0.100386 0.102174 -0.024251
-0.008171 0.113477 -0.070515
0.085849 0.092957 -0.025903
0.003675 0.106986 -0.075339
0.141941 0.028053 0.058028
-0.038781 -0.025850 -0.050183
0.196792 0.109028 -0.060669
-0.044075 0.166431 0.033981
-0.042101 0.169960 0.041993
0.170081 0.118252 -0.110229
0.044839 0.070479 0.135505
0.158927 0.113109 -0.114541
0.195463 0.114153 -0.060802
0.155441 -0.046105 0.063479
0.133203 0.100248 -0.120052
0.147184 0.108298 -0.117228
0.063033 0.054897 0.137268
-0.048071 0.165271 0.024795
0.053924 0.062148 0.136127
0.129835 0.119441 -0.024912
-0.030554 0.125394 -0.048298
-0.015678 0.118731 -0.064978
0.236018 0.152000 -0.015965