# vtk DataFile Version 2.0
Simplicial Mesh Example
ASCII
DATASET UNSTRUCTURED_GRID
POINTS 8937 double
-1.887288e+05 -1.140747e+05 1.219525e+05
-1.845412e+05 -1.124097e+05 1.296635e+05
-1.891969e+05 -1.114813e+05 1.236141e+05
-1.936578e+05 -1.130096e+05 1.150196e+05
-2.288144e+05 -9.781324e+04 -3.975601e+04
-2.289265e+05 -9.562056e+04 -4.419704e+04
-2.307623e+05 -9.519619e+04 -3.450305e+04
-2.302583e+05 -9.796976e+04 -2.978319e+04
-2.237774e+05 -1.090155e+05 3.928471e+04
-2.263734e+05 -9.906501e+04 -4.944917e+04
-2.261649e+05 -9.741792e+04 -5.350896e+04
-2.000827e+05 -1.149402e+05 -1.012900e+05
-1.998927e+05 -1.127111e+05 -1.041302e+05
-1.952789e+05 -1.150509e+05 -1.101519e+05
-1.932785e+05 -1.155813e+05 1.130858e+05
-1.979996e+05 -1.141075e+05 1.062056e+05
-2.140411e+05 -1.146925e+05 6.735027e+04
-2.177541e+05 -1.111044e+05 6.117971e+04
-2.230653e+05 -1.015185e+05 -5.865018e+04
-2.226809e+05 -1.001517e+05 -6.234451e+04
-2.308632e+05 -1.005491e+05 -9.801127e+03
-1.819353e+05 -1.084358e+05 1.365475e+05
-1.785184e+05 -1.097285e+05 1.399815e+05
-1.764303e+05 -1.087539e+05 1.433490e+05
-1.793262e+05 -1.072413e+05 1.408739e+05
-1.773137e+05 -1.063003e+05 1.440975e+05
-2.294523e+05 -1.037028e+05 1.006828e+04
-2.300348e+05 -1.018991e+05 1.430305e+04
-1.861241e+05 -1.119142e+05 -1.278164e+05
-1.906933e+05 -1.112275e+05 -1.215258e+05
-1.862689e+05 -1.090216e+05 -1.300853e+05
-2.320091e+05 -9.723020e+04 -1.490185e+04
-2.317831e+05 -9.876309e+04 -5.143394e+03
-2.303839e+05 -1.021138e+05 1.511048e+02
-2.317269e+05 -9.590041e+04 -2.469355e+04
-2.308733e+05 -9.904767e+04 -1.977616e+04
-1.976750e+05 -1.166134e+05 1.040669e+05
-2.022108e+05 -1.146800e+05 9.727935e+04
-2.311288e+05 -1.003109e+05 4.605824e+03
-2.280505e+05 -1.053574e+05 1.991899e+04
-2.186626e+05 -1.033364e+05 -7.079720e+04
-2.142469e+05 -1.065655e+05 -7.903216e+04
-2.099710e+05 -1.110319e+05 -8.419081e+04
-2.095488e+05 -1.094704e+05 -8.723256e+04
-2.147133e+05 -1.079343e+05 -7.584458e+04
-2.191221e+05 -1.046294e+05 -6.739565e+04
-2.176477e+05 -1.129559e+05 5.808991e+04
-2.210490e+05 -1.092356e+05 5.204721e+04
-2.261629e+05 -1.071170e+05 2.966994e+04
-2.101696e+05 -1.160641e+05 7.656279e+04
-2.141540e+05 -1.127292e+05 7.024371e+04
-2.019446e+05 -1.170837e+05 9.494104e+04
-1.727410e+05 -1.015164e+05 -1.528365e+05
-1.775112e+05 -1.025272e+05 -1.465672e+05
-1.677508e+05 -9.769741e+04 -1.606825e+05
-1.680199e+05 -9.487947e+04 -1.620839e+05
-1.730459e+05 -9.853601e+04 -1.544337e+05
-2.050322e+05 -1.135188e+05 -9.262433e+04
-1.492634e+05 -1.000411e+05 -1.766811e+05
-1.525565e+05 -9.868447e+04 -1.746193e+05
-1.498592e+05 -9.755086e+04 -1.775671e+05
-1.620494e+05 -9.622485e+04 -1.672865e+05
-1.530681e+05 -9.621477e+04 -1.755473e+05
-1.571731e+05 -9.472374e+04 -1.727079e+05
-1.567883e+05 -9.718321e+04 -1.716883e+05
-1.623097e+05 -9.367581e+04 -1.684767e+05
-1.772447e+05 -1.055256e+05 -1.447504e+05
-1.906373e+05 -1.139796e+05 -1.190382e+05
-1.473598e+05 -9.861778e+04 -1.790632e+05
-2.209161e+05 -1.110120e+05 4.874876e+04
-1.818952e+05 -1.060708e+05 -1.384454e+05
-1.816821e+05 -1.090408e+05 -1.364028e+05
-1.952227e+05 -1.125168e+05 -1.128365e+05
-2.103159e+05 -1.139617e+05 7.927137e+04
-2.063145e+05 -1.146473e+05 8.828541e+04
-2.061118e+05 -1.169079e+05 8.575811e+04
-1.811765e+05 -1.109420e+05 1.355395e+05
-2.047036e+05 -1.116596e+05 -9.556454e+04
-2.284853e+05 -1.035668e+05 2.392426e+04
-1.756795e+05 -1.055283e+05 1.466441e+05
-2.239750e+05 -1.072682e+05 4.281034e+04
-1.851579e+05 -1.098507e+05 1.309709e+05
-1.747979e+05 -1.079837e+05 1.459082e+05
-1.466678e+05 -1.011405e+05 -1.782222e+05
-2.264673e+05 -1.053495e+05 3.343725e+04
2.414403e+05 -7.215653e+04 2.005672e+03
2.411864e+05 -7.204854e+04 1.192233e+04
2.438820e+05 -6.306718e+04 6.934434e+03
-1.864231e+05 4.314375e+04 1.639788e+05
-1.808560e+05 5.191504e+04 1.676304e+05
-1.928977e+05 4.384311e+04 1.561161e+05
-1.980853e+05 4.562256e+04 1.489456e+05
-9.303316e+04 -2.240282e+05 -6.826571e+04
-1.874467e+05 5.266319e+04 1.599823e+05
-9.136348e+04 1.846555e+04 -2.341276e+05
-8.272440e+04 8.751891e+03 -2.378741e+05
-8.153605e+04 1.959524e+04 -2.376382e+05
-1.607839e+04 -1.003407e+05 2.306019e+05
-6.562188e+03 -9.565442e+04 2.330476e+05
-6.730395e+03 -1.054640e+05 2.287707e+05
-1.790375e+05 4.367104e+04 1.718790e+05
-1.155395e+05 -2.025394e+05 -9.556369e+04
-1.062814e+05 -2.047100e+05 -1.014992e+05
-1.392367e+05 -8.000066e+04 -1.942087e+05
7.920556e+04 1.881168e+05 1.477922e+05
6.824287e+04 1.910080e+05 1.495422e+05
7.372926e+04 1.956646e+05 1.406533e+05
8.275639e+04 1.933034e+05 1.388855e+05
2.414084e+05 -3.187223e+04 -6.488558e+04
2.436079e+05 -3.280743e+04 -5.552343e+04
2.385964e+05 -4.068018e+04 -7.014901e+04
8.835174e+04 -2.138650e+05 9.979839e+04
2.448631e+05 -1.350779e+04 5.799640e+04
2.231636e+05 1.164469e+05 1.192228e+04
2.181306e+05 1.255197e+05 1.295546e+04
-5.219625e+04 1.545037e+05 -1.921150e+05
-5.719716e+04 1.593392e+05 -1.866641e+05
-5.790772e+04 1.520634e+05 -1.924251e+05
4.614643e+04 -1.962561e+04 -2.469602e+05
4.661986e+04 -8.664190e+03 -2.474985e+05
-2.371157e+05 8.115433e+04 2.634599e+04
-2.387456e+05 7.906883e+04 1.589504e+04
-2.350246e+05 8.904360e+04 1.840258e+04
-2.364189e+05 8.681965e+04 8.510929e+03
-1.755446e+05 7.038543e+04 1.665353e+05
-1.685437e+05 1.683194e+05 8.225311e+04
-1.606632e+05 1.760679e+05 8.180112e+04
-4.745937e+03 -1.569295e+05 -1.971157e+05
-1.239776e+04 -1.614768e+05 -1.930687e+05
-3.518521e+04 -1.382343e+05 -2.077433e+05
-3.232782e+04 -1.291140e+05 -2.139824e+05
1.118821e+05 -2.227495e+05 3.700091e+04
1.032478e+05 -2.275253e+05 3.280460e+04
1.131660e+05 -2.198929e+05 4.842077e+04
1.045259e+05 -2.249306e+05 4.454835e+04
2.106309e+05 -5.905369e+04 1.251051e+05
2.053703e+05 -6.697718e+04 1.297733e+05
2.099441e+05 -6.892238e+04 1.211495e+05
2.044767e+05 -7.677712e+04 1.256923e+05
-3.972574e+03 2.349713e+05 9.097645e+04
-1.527407e+03 2.310927e+05 1.004879e+05
-1.103841e+04 2.315808e+05 9.875457e+04
2.026301e+05 8.361117e+04 -1.243149e+05
1.883519e+05 -1.503591e+05 -7.361866e+04
1.901775e+05 -1.520086e+05 -6.503773e+04
-2.473893e+04 2.405111e+05 -7.103788e+04
1.822922e+04 -2.348722e+05 -8.948043e+04
2.739139e+04 -2.342920e+05 -8.866214e+04
9.822569e+04 2.932543e+04 2.302080e+05
2.291914e+05 7.610951e+04 -7.199053e+04
-2.630427e+04 2.384220e+05 7.724645e+04
-3.279832e+04 2.346940e+05 8.571466e+04
2.403477e+05 7.129426e+04 -2.557593e+04
2.378402e+05 8.058918e+04 -2.101003e+04
2.369312e+05 8.097853e+04 -2.846224e+04
2.159068e+05 1.056066e+05 7.573319e+04
-9.340347e+03 2.272753e+05 1.084560e+05
-1.973649e+04 2.282279e+05 1.050071e+05
-1.793661e+05 -1.169136e+05 1.329022e+05
1.223590e+05 1.702881e+05 -1.397650e+05
1.128535e+05 1.778404e+05 -1.383506e+05
1.293817e+05 1.722870e+05 -1.306964e+05
1.208958e+05 1.779586e+05 -1.312209e+05
-4.061213e+04 2.308740e+05 9.247625e+04
6.995742e+04 -1.206220e+05 2.099054e+05
1.181377e+05 2.051919e+05 8.627731e+04
-7.607099e+04 -1.528924e+05 -1.853135e+05
2.457846e+05 -2.378558e+04 -5.028121e+04
1.166028e+04 -5.556631e+04 2.455207e+05
1.119749e+04 -4.524070e+04 2.476528e+05
2.067691e+04 -4.948695e+04 2.462265e+05
2.104031e+04 -5.979046e+04 2.438984e+05
-7.669779e+03 -1.753919e+05 -1.807840e+05
2.204615e+05 9.596684e+04 7.543940e+04
2.175836e+05 9.716900e+04 8.197306e+04
-8.326397e+04 2.221654e+05 -8.493317e+04
-8.184060e+04 2.262328e+05 -7.499898e+04
1.292535e+05 -7.533721e+04 2.027852e+05
8.758936e+04 1.009912e+05 -2.136185e+05
-1.349651e+05 -2.080499e+05 4.476246e+04
-1.283880e+05 -2.101313e+05 5.352900e+04
-9.827706e+04 4.456866e+04 -2.277263e+05
-9.618318e+04 3.466963e+04 -2.303276e+05
-8.972508e+04 3.913142e+04 -2.322114e+05
9.020502e+04 9.141059e+04 -2.168206e+05
9.853605e+04 9.474835e+04 -2.117012e+05
1.212840e+05 -1.585441e+05 -1.538114e+05
1.182443e+05 -1.713463e+05 -1.419956e+05
1.244510e+05 -1.635334e+05 -1.458519e+05
1.088747e+05 -1.741102e+05 -1.460682e+05
1.303319e+05 1.127444e+05 -1.838649e+05
2.007292e+05 -1.162625e+05 9.846236e+04
1.151660e+05 -1.664916e+05 -1.500711e+05
1.878288e+05 -1.002465e+05 -1.348146e+05
1.925888e+05 -1.022708e+05 -1.263101e+05
5.917015e+04 2.427668e+05 -3.266772e+04
2.299626e+05 9.962138e+04 -2.639677e+04
1.104421e+05 -1.456367e+05 1.734834e+05
1.072314e+05 -1.366185e+05 1.825947e+05
5.205395e+04 2.453222e+05 -2.472690e+04
2.293868e+05 -6.703032e+04 7.995400e+04
2.304634e+05 -5.736055e+04 8.426390e+04
2.023960e+05 -1.267302e+05 -8.049407e+04
2.148463e+05 6.496952e+04 1.145601e+05
2.104966e+05 6.683036e+04 1.213626e+05
1.982924e+05 8.915823e+04 1.274163e+05
1.936152e+05 9.853388e+04 1.277037e+05
-2.444596e+05 2.148977e+04 5.728621e+04
-2.421238e+05 3.395709e+04 6.104894e+04
-2.416442e+05 2.529726e+04 6.687393e+04
2.498904e+05 1.339798e+04 -2.965292e+04
-2.172378e+05 -1.277174e+05 -1.129334e+02
-2.430955e+05 -5.975673e+04 2.894288e+04
-2.456882e+05 -4.993431e+04 2.545381e+04
-2.439051e+05 -5.196217e+04 3.625209e+04
-7.785888e+04 2.334886e+05 -5.408381e+04
-7.553163e+04 2.364119e+05 -4.368488e+04
-8.653031e+04 2.318999e+05 -4.731762e+04
1.371897e+05 -5.834541e+04 2.031718e+05
1.369905e+05 -6.844609e+04 2.001318e+05
1.295849e+05 -6.530045e+04 2.060282e+05
-1.143082e+05 2.128603e+05 -7.161091e+04
-2.482279e+05 -2.422395e+04 3.605717e+04
-2.496032e+05 -1.427387e+04 3.159894e+04
-1.235943e+05 7.692460e+04 2.056965e+05
8.862032e+04 -2.227902e+05 7.755620e+04
8.855322e+04 -2.257094e+05 6.868458e+04
7.019679e+04 -2.370778e+05 -4.868826e+04
6.620880e+04 -2.356097e+05 -6.007055e+04
6.032386e+04 -2.390234e+05 -5.227642e+04
-1.492564e+05 -1.523807e+05 -1.341889e+05
-1.470119e+05 -1.603625e+05 -1.271825e+05
-5.229201e+04 2.439934e+05 -3.516750e+04
-4.778586e+04 2.461731e+05 -2.488561e+04
-6.116381e+04 2.426589e+05 -2.965886e+04
3.008702e+04 2.225688e+05 -1.142887e+05
2.328901e+04 2.261149e+05 -1.087827e+05
-9.096124e+04 2.002395e+05 1.230211e+05
-8.867237e+04 2.065077e+05 1.139991e+05
-8.262203e+04 2.040073e+05 1.227136e+05
1.662017e+05 -1.715235e+05 -8.037841e+04
1.797777e+05 4.290969e+03 1.765377e+05
[...]
POINT_DATA 8937
VECTORS displacement double
0.313371 0.158502 -0.219298
0.283001 0.174209 -0.209502
0.300525 0.284702 -0.225604
0.351082 0.280931 -0.240756
0.542130 -0.070315 -0.318302
0.853744 -0.128902 -0.315564
0.875880 -0.098092 -0.312875
0.547289 -0.058767 -0.322895
0.509674 0.030040 -0.304974
0.530366 -0.081497 -0.309991
0.822637 -0.157634 -0.323201
0.381483 -0.147356 -0.287862
0.514131 -0.295786 -0.325516
0.352918 -0.155244 -0.286383
0.343786 0.142634 -0.230664
0.404757 0.272687 -0.257246
0.462496 0.073166 -0.278673
0.679033 0.183340 -0.321702
0.513021 -0.094707 -0.301284
0.783617 -0.183211 -0.332093
0.545974 -0.035673 -0.327026
0.227394 0.279984 -0.204249
0.237546 0.201209 -0.197380
0.218656 0.213899 -0.195496
0.204900 0.273062 -0.198522
0.190860 0.266363 -0.197113
0.537234 -0.011448 -0.323307
0.862207 0.051041 -0.327173
0.302060 -0.176924 -0.274579
0.399201 -0.325520 -0.288004
0.344043 -0.333503 -0.268121
0.894558 -0.037295 -0.321199
0.892364 -0.007548 -0.325604
0.542074 -0.023942 -0.326649
0.888745 -0.067476 -0.315618
0.548417 -0.047379 -0.325967
0.370924 0.128081 -0.242053
0.460090 0.261115 -0.273804
0.881438 0.022111 -0.327548
0.530970 0.000825 -0.316871
0.737400 -0.206893 -0.339415
0.685519 -0.230366 -0.343239
0.439132 -0.131214 -0.289111
0.630753 -0.251088 -0.344508
0.466787 -0.120428 -0.290910
0.491434 -0.107886 -0.295005
0.479294 0.058320 -0.288087
0.728266 0.158528 -0.326806
0.521298 0.015292 -0.311845
0.442104 0.086813 -0.269860
0.626858 0.206329 -0.314002
0.395860 0.114360 -0.252142
0.231492 -0.211238 -0.236698
0.240938 -0.337083 -0.230583
0.202732 -0.225882 -0.218912
0.150314 -0.325543 -0.215509
0.192179 -0.333568 -0.217125
0.411006 -0.140123 -0.288082
0.071404 -0.235326 -0.217856
0.098515 -0.239105 -0.209240
0.045232 -0.260398 -0.228841
0.171495 -0.236718 -0.202142
0.062218 -0.273263 -0.227863
0.084098 -0.292560 -0.225538
0.133156 -0.237645 -0.202073
0.114532 -0.309830 -0.221058
0.255292 -0.198522 -0.251997
0.326204 -0.165964 -0.281603
0.036083 -0.246541 -0.230785
0.494064 0.044357 -0.298049
0.290972 -0.337844 -0.248614
0.279202 -0.187454 -0.264181
0.455938 -0.313004 -0.307788
0.572507 0.227339 -0.303563
0.516591 0.245907 -0.289567
0.420104 0.100846 -0.261135
0.257807 0.188355 -0.202128
0.573391 -0.274212 -0.339077
0.838352 0.079900 -0.328685
0.186614 0.258815 -0.193936
0.770128 0.133725 -0.328455
0.258832 0.284167 -0.213333
0.196657 0.224536 -0.197058
0.044525 -0.230626 -0.226849
0.806815 0.107370 -0.328820
0.858456 -0.032324 0.213140
0.857394 -0.008538 0.213979
0.880849 -0.020709 0.190883
0.267648 0.299903 0.119122
0.224490 0.292094 0.138272
0.322814 0.295521 0.119258
0.369177 0.289101 0.121380
-0.281973 -0.017882 -0.234195
0.278512 0.289279 0.138554
-0.240678 -0.267879 0.069008
-0.272677 -0.266788 0.044654
-0.273306 -0.246832 0.077776
-0.465398 0.040849 -0.033175
-0.470161 0.035809 -0.014324
-0.470625 0.037307 -0.013449
0.207630 0.300530 0.121795
-0.157894 -0.052145 -0.283086
-0.200853 -0.048019 -0.270675
-0.053224 -0.279661 -0.203582
-0.327096 0.040875 -0.162645
-0.362186 0.031148 -0.141531
-0.345347 0.034135 -0.153302
-0.314688 0.041475 -0.170140
0.840161 -0.203105 0.100498
0.864386 -0.180257 0.104345
0.808242 -0.212874 0.122010
-0.397408 0.122039 0.233949
0.870088 0.106584 0.061564
0.635512 -0.003858 -0.239603
0.585641 -0.001089 -0.253966
-0.414909 0.025867 0.148569
-0.407039 0.022573 0.160083
-0.399447 0.016294 0.164037
-0.466161 -0.158101 0.099320
-0.481610 -0.161003 0.070147
0.787649 0.058336 0.173153
0.808347 0.034520 0.167992
0.765178 0.040492 0.190138
0.782509 0.018240 0.184950
0.187737 0.271077 0.173293
0.152630 0.106303 0.290928
0.095664 0.097725 0.290057
-0.402435 0.080381 -0.043060
-0.387661 0.077083 -0.062061
-0.404932 0.029990 -0.114804
-0.419279 0.034005 -0.111081
-0.336322 0.140492 0.300161
-0.364478 0.135485 0.280672
-0.332828 0.141024 0.301898
-0.362510 0.135851 0.283081
0.527494 0.227058 0.160339
0.480053 0.228679 0.175702
0.527065 0.215745 0.184401
0.477903 0.216689 0.198892
-0.467658 0.013372 0.018230
-0.467206 0.011732 0.013226
-0.464308 0.013441 0.035958
0.500522 -0.293113 -0.204026
0.330072 -0.158136 0.343782
0.358836 -0.147855 0.350699
-0.482774 0.045833 0.058930
-0.437305 0.124334 0.017717
-0.424882 0.123723 0.042545
-0.254880 0.192607 -0.073567
0.727670 -0.203872 -0.174006
-0.454189 0.018620 0.070597
-0.445081 0.019179 0.086545
0.824537 -0.098301 -0.154711
0.795814 -0.084705 -0.174761
0.788700 -0.102290 -0.176591
0.557560 0.119666 -0.214295
-0.464585 0.011612 0.032957
-0.458336 0.013919 0.056707
0.244762 0.183178 -0.209899
-0.153903 -0.077276 -0.278696
-0.214825 -0.049730 -0.267410
-0.110699 -0.084578 -0.283988
-0.166535 -0.063035 -0.275431
-0.432040 0.020777 0.104893
-0.369451 0.102093 0.138005
-0.162036 0.048515 -0.236148
-0.308485 -0.043208 -0.223644
0.888369 -0.169198 0.082137
-0.466093 0.031765 0.017184
-0.466175 0.030255 0.013771
-0.459315 0.040521 0.030653
-0.459444 0.040626 0.034822
-0.366316 0.103624 -0.038598
0.601606 0.124035 -0.197195
0.573493 0.134724 -0.198951
-0.337465 0.019848 0.196868
-0.341650 0.021947 0.193567
-0.107065 0.225299 0.147186
-0.296866 -0.115061 -0.195466
-0.045825 0.052650 -0.308383
-0.087119 0.059963 -0.287400
-0.206416 -0.217957 0.116962
-0.218343 -0.239420 0.102808
-0.241194 -0.215845 0.112306
-0.284474 -0.144173 -0.201026
-0.249712 -0.156528 -0.202489
-0.266356 -0.155572 0.233294
-0.273202 -0.165017 0.238170
-0.243782 -0.161874 0.241103
-0.324852 -0.163432 0.224503
-0.050880 -0.220137 -0.297639
0.491191 0.149985 0.298411
-0.295830 -0.157698 0.229870
0.262531 -0.263711 0.232210
0.309136 -0.255212 0.239198
-0.413621 0.027113 -0.142470
0.714582 -0.090076 -0.214436
-0.223720 0.147514 0.210818
-0.233211 0.147808 0.199686
-0.428603 0.028018 -0.125499
0.729974 0.145527 0.195907
0.733835 0.157371 0.170885
0.437636 -0.180606 0.304851
0.546822 0.204684 -0.134842
0.505702 0.212819 -0.139254
0.395443 0.202129 -0.182431
0.354841 0.193280 -0.198279
0.873932 0.137382 0.031226
0.841715 0.144490 0.064923
0.835285 0.159192 0.044885
0.930742 -0.117658 -0.012658
0.462129 -0.013141 -0.352439
0.940242 0.073331 -0.208058
0.962326 0.062473 -0.181694
0.933746 0.090801 -0.182105
-0.352852 0.025905 0.184012
-0.359220 0.027193 0.178934
-0.319672 0.022531 0.201967
-0.059256 0.248121 0.120280
-0.061143 0.240245 0.138641
-0.104389 0.233763 0.130107
-0.196367 -0.001467 0.253535
0.958242 0.087351 -0.103404
0.970112 0.074893 -0.076678
-0.146604 0.213491 0.177738
-0.407950 0.123985 0.241085
-0.410886 0.124686 0.242697
-0.380204 0.121138 0.168038
-0.375963 0.121497 0.152150
-0.399808 0.121396 0.142222
0.056018 -0.143081 -0.293096
0.038179 -0.128175 -0.299438
-0.425099 0.033056 0.126622
-0.433830 0.032718 0.116522
-0.401497 0.030784 0.146986
-0.499347 0.059068 -0.087789
-0.504339 0.058777 -0.069285
-0.286617 0.055535 0.208306
-0.295781 0.050432 0.204722
-0.317735 0.047752 0.193714
0.156285 -0.154834 0.364305
0.240700 0.289444 -0.006415
-0.481302 0.101976 -0.003689
-0.475078 0.090185 0.026921
0.519458 -0.336082 -0.112715
-0.320357 -0.116390 -0.182985
-0.321908 -0.129327 -0.182674
-0.292204 -0.144314 -0.189729
-0.442402 0.028296 -0.106837
-0.453274 0.030883 -0.098155
0.543950 -0.012697 -0.266093
0.531723 0.010829 -0.264641
-0.176774 0.039027 -0.312091
-0.422338 0.129625 -0.002670
-0.400188 0.152794 0.007489
-0.467195 -0.019318 -0.002224
-0.463720 -0.009066 -0.022120
-0.462818 0.002590 -0.028626
-0.456422 0.017587 -0.040450
-0.464554 0.087573 -0.044135
-0.467115 0.103641 0.017244
0.402409 0.106340 0.278046
0.977761 -0.113389 -0.181806
0.971456 -0.132189 -0.156026
-0.449707 0.052829 0.050853
-0.459536 0.040983 0.037843
0.765605 -0.122562 0.171391
-0.276744 0.050243 -0.187474
-0.299396 0.042749 -0.178822
-0.264957 0.049200 -0.193914
-0.427080 0.068471 -0.086520
-0.407214 0.077647 -0.102904
-0.366873 -0.004356 -0.188215
-0.466863 0.012811 -0.005554
0.163052 0.322011 0.058809
0.206896 0.316370 0.080624
0.147644 0.315244 0.082946
0.086999 -0.065107 -0.301940
0.122126 -0.059432 -0.303484
0.052706 -0.050606 -0.299240
0.347234 0.218977 -0.170101
0.306172 0.218951 -0.175686
0.341265 0.207102 -0.185115
0.040966 0.001740 0.298953
0.011305 0.012201 0.294848
-0.110689 0.024104 -0.260275
-0.069307 0.020280 -0.270370
0.415243 -0.359016 -0.159185
0.944462 0.055952 0.038054
0.916844 0.070139 0.062433
0.915367 0.090501 0.044230
0.088651 0.173000 -0.218339
-0.488876 0.054410 -0.101732
-0.474695 0.048947 -0.116759
-0.424859 0.007305 0.128348
-0.468317 0.014453 0.000529
-0.464423 0.013945 -0.022543
-0.465630 0.010892 -0.005313
-0.466260 0.010262 0.009091
-0.461129 0.015160 -0.039456
-0.306425 0.017272 0.210849
-0.269156 0.011045 0.227466
-0.366400 0.021996 -0.159488
-0.356417 0.022319 -0.163897
-0.248215 0.196580 -0.134085
-0.287146 0.174950 -0.131358
-0.262535 0.177182 -0.143187
-0.294136 0.204127 0.095149
-0.455668 0.001238 -0.029732
-0.460732 -0.000086 -0.009516
-0.456626 0.001871 -0.027398
0.201480 -0.072625 -0.304774
0.164632 -0.055342 -0.304618
-0.233408 -0.144595 -0.207911
-0.270322 -0.128678 -0.196112
-0.248039 -0.149239 -0.201871
-0.447358 0.009506 0.083322
-0.456423 0.001993 0.062670
-0.413735 0.023508 0.125101
-0.397048 0.027933 0.140630
-0.524945 0.092119 0.070614
-0.528984 0.091704 0.044912
0.380027 -0.071340 0.395626
0.432964 -0.063509 0.390497
0.413913 -0.041690 0.405125
0.449696 -0.049143 0.394259
-0.477456 0.115971 0.109144
-0.488149 0.114189 0.099502
-0.123275 0.283455 -0.061363
-0.464649 0.016762 -0.033079
-0.465028 0.077302 0.050456
0.522842 -0.343742 -0.081744
0.472597 -0.357713 -0.063394
-0.462346 -0.004192 0.038717
0.489302 -0.354397 0.035844
0.503589 -0.355399 0.004190
-0.467453 0.026069 0.054006
0.911290 0.061713 0.066314
-0.394984 0.110663 -0.022780
-0.394252 0.112455 -0.003791
-0.380673 0.110077 0.004196
0.896411 0.074128 0.090477
-0.211234 0.121827 0.213776
-0.242483 0.121698 0.199691
-0.250514 0.012352 -0.227350
-0.299741 0.015656 -0.207739
-0.283337 0.016208 -0.212273
-0.217543 0.007500 -0.240988
0.575192 -0.334756 -0.063178
-0.431238 0.092897 -0.211436
-0.438983 0.099799 -0.188401
-0.284498 0.102892 -0.167333
-0.317663 0.097733 -0.153881
-0.325911 0.094297 -0.152295
-0.465224 0.040334 -0.034538
0.488202 -0.042222 -0.279897
0.498622 -0.021864 -0.276410
0.538105 -0.036460 -0.269560
0.777299 -0.267392 -0.040916
0.317284 0.302444 -0.127332
0.367670 0.302033 -0.110937
-0.463033 -0.005723 0.035564
-0.457186 0.000526 0.060322
-0.478175 0.026460 0.012487
-0.474755 0.024823 0.027049
-0.351222 0.020470 -0.180566
0.416149 -0.341027 -0.181392
0.464875 -0.346103 -0.161493
0.219577 -0.272265 -0.260090
0.283578 -0.284507 -0.248228
0.261673 -0.266322 -0.259476
-0.442239 0.006235 -0.059344
-0.445332 0.003799 -0.053532
-0.430767 0.013631 -0.075457
0.812001 -0.075080 0.163479
-0.305553 0.145973 0.318033
-0.140637 0.027661 0.264392
-0.447066 0.079626 0.051203
-0.433345 0.108536 0.040759
-0.433826 0.094434 0.065022
0.084685 -0.363012 -0.121569
0.168892 -0.209350 -0.285026
-0.051327 0.025946 -0.271839
-0.441233 0.012229 -0.062659
-0.429781 0.021564 -0.076974
-0.415626 0.025853 -0.133544
0.198178 -0.248239 0.236106
-0.218958 0.044614 -0.217524
-0.206481 0.041826 -0.223844
-0.419051 -0.010437 -0.136789
-0.439343 0.023506 -0.113640
0.604263 0.122921 0.226095
0.185018 0.257130 0.191524
0.180968 0.076579 0.299604
0.146434 0.064613 0.300442
0.114712 0.071497 0.297776
0.514484 0.257895 -0.011753
0.561695 0.247702 -0.005192
-0.439508 0.116046 -0.111268
-0.447502 0.114832 -0.124435
-0.463638 0.121829 -0.094918
-0.450934 0.124594 -0.007562
-0.250337 0.064701 0.222603
-0.260312 0.058605 0.219517
-0.406042 0.019986 -0.118840
-0.390450 0.021053 -0.131187
-0.193474 0.267764 0.026587
-0.163795 0.273739 0.049099
-0.199445 0.261258 0.052358
-0.489166 0.056765 -0.109960
0.814578 -0.147742 0.128667
-0.002604 -0.017739 -0.290405
0.027684 -0.012487 -0.292724
-0.116205 0.170996 0.299004
-0.123896 0.170464 0.316330
-0.428287 0.029438 0.117625
-0.446100 0.020713 -0.079786
-0.443196 0.019001 -0.080588
-0.456332 0.019545 -0.060558
0.024240 -0.106911 -0.296605
0.059512 -0.105048 -0.298982
-0.472039 0.049948 0.089047
0.130651 -0.127055 -0.315833
0.114917 -0.111574 -0.322896
-0.333018 0.121241 0.205142
-0.327165 0.125977 0.218430
-0.361263 0.115017 0.198767
0.009666 0.313167 -0.057210
-0.007515 0.313653 -0.033577
-0.039773 0.306000 -0.048657
0.077794 -0.121465 -0.311235
0.329859 0.007317 -0.294451
0.376683 0.016137 -0.288649
0.319618 0.022777 -0.292091
-0.485799 0.067713 -0.152412
-0.490724 0.067845 -0.140915
-0.453993 0.022320 0.075407
-0.443913 0.022398 0.091239
-0.437673 0.024435 0.101029
-0.039283 0.038073 0.285048
-0.009413 0.044977 0.288937
-0.465762 -0.013417 0.021262
-0.347865 0.121553 0.163133
0.635691 -0.203442 -0.214585
0.962204 0.027354 -0.232407
0.975277 -0.003628 -0.230003
-0.352645 0.168333 -0.082605
-0.470832 0.062968 -0.044535
0.209044 -0.314037 -0.234092
0.212082 -0.018769 -0.302674
0.214034 -0.009891 -0.301449
-0.469995 0.087609 -0.052702
-0.473182 0.043687 0.027775
-0.475370 0.043067 0.008282
-0.473869 0.040805 0.008491
-0.402114 0.021510 -0.108778
-0.427189 0.012490 -0.081697
-0.408389 0.018424 -0.103159
-0.423951 0.121123 0.127481
-0.104416 0.219772 0.186692
-0.153000 0.199031 0.190725
0.880572 0.062074 0.106009
-0.468831 0.038254 0.026462
-0.471962 0.037093 0.007246
-0.471305 0.035291 0.006269
-0.434576 0.122891 0.002811
0.719206 -0.278015 -0.142560
0.744018 -0.275308 -0.115573
0.613519 0.177049 0.186980
0.565336 0.189265 0.194470
-0.338622 0.028266 -0.163625
0.993345 -0.105648 -0.070249
0.996616 -0.087090 -0.045294
-0.264261 0.042518 0.220514
-0.305631 0.038499 0.201448
-0.287643 0.042132 0.209523
-0.409104 0.113171 -0.030898
-0.122474 -0.181655 0.249668
-0.152160 -0.172339 0.252760
-0.122664 -0.171759 0.263722
-0.359293 0.011231 -0.222797
-0.314964 -0.005304 -0.237722
-0.346439 0.008176 -0.224124
-0.423181 0.114284 0.210469
-0.449906 0.108139 0.188406
-0.444276 0.107051 0.187147
0.287811 0.266091 0.174914
-0.452981 0.050357 0.061307
-0.454795 0.050647 0.062640
-0.463150 0.043516 0.045222
-0.461706 0.042774 0.044301
0.913651 0.084933 -0.233694
0.941151 0.056217 -0.233571
-0.423202 0.031255 -0.083037
0.098476 -0.157787 0.351882
0.613399 0.158369 0.201422
-0.457738 0.004480 0.054126
-0.450994 0.008095 0.071463
-0.440665 0.012913 0.091601
-0.449877 0.007867 0.074313
-0.338781 -0.017085 -0.213502
-0.442532 0.012311 0.088038
0.658746 0.193278 0.158354
0.026014 0.283948 -0.142220
-0.025949 0.256428 -0.161794
-0.227228 0.010347 -0.271188
-0.215015 0.016388 -0.280332
-0.173465 0.016417 -0.294440
-0.375406 0.083804 0.147907
0.024873 0.270118 -0.160559
0.121274 -0.355618 0.153632
0.068480 0.268141 -0.173035
-0.162320 0.105112 0.237130
-0.325418 0.037249 0.190786
-0.345891 0.035531 0.178415
-0.443237 0.036941 0.092024
-0.451102 0.019244 0.081454
1.008766 -0.055238 -0.155705
0.997442 -0.074123 -0.179998
1.003228 -0.035595 -0.178867
-0.319023 -0.022157 -0.225773
-0.290756 -0.031299 -0.240360
0.953943 0.009762 -0.256338
-0.467198 0.015448 -0.016674
-0.198632 0.181999 0.169308
-0.233858 0.172716 0.159099
0.826612 -0.201827 -0.100991
-0.474154 0.022366 -0.007754
-0.473635 0.020788 0.006735
-0.339786 0.044134 0.181475
-0.185748 0.223181 0.093815
-0.111754 -0.167941 0.326686
0.943035 -0.096124 0.040380
0.659925 0.156939 -0.142006
0.654606 0.141715 -0.160496
-0.368451 0.121979 0.121002
-0.346065 0.121467 0.145829
-0.432639 0.117455 0.217881
-0.387594 0.023159 -0.207375
-0.368207 0.017085 -0.212138
-0.408808 0.031249 -0.192791
-0.345439 0.121099 0.129870
-0.364105 0.121820 0.206264
-0.393263 0.121488 0.190150
0.950853 -0.046998 0.043092
-0.464208 0.044007 -0.034510
-0.468167 0.032021 -0.021316
-0.469407 0.026030 -0.005098
-0.369794 -0.078214 -0.182051
0.448112 0.264817 -0.044157
-0.468332 0.031632 -0.021051
-0.175256 0.164935 0.325207
-0.168614 0.165838 0.312914
-0.408558 -0.005159 0.125144
-0.375634 -0.051457 0.133911
-0.405245 0.030482 -0.234267
-0.408839 0.031660 -0.223934
0.678485 0.212525 0.060366
0.762803 -0.071764 -0.193603
0.721330 -0.075102 -0.212825
0.757098 -0.088204 -0.195234
-0.364893 0.005653 -0.238844
-0.324737 0.032664 0.192574
-0.449784 0.015489 -0.062132
0.499401 -0.269860 0.202608
-0.398238 0.025676 0.169466
0.504205 -0.223977 0.250113
0.442629 -0.222117 0.261989
-0.348720 0.031830 0.178246
-0.407168 0.144685 -0.019601
-0.381348 0.168895 -0.009737
0.763451 -0.021604 -0.190706
0.758777 -0.005211 -0.190035
0.720660 -0.012379 -0.209224
-0.528817 0.092082 0.020360
-0.231109 -0.044710 -0.261344
-0.196594 -0.054385 -0.270686
-0.194816 -0.043059 -0.272081
0.738959 0.100726 0.248794
0.712727 0.120244 0.244402
0.938068 -0.071969 0.092438
-0.186043 0.216650 0.112666
-0.187216 0.208733 0.129423
-0.141075 -0.328115 0.036435
-0.147962 0.217825 0.138400
0.512201 -0.001389 -0.331820
0.504791 0.012254 -0.326423
0.482123 0.007452 -0.339470
-0.501508 0.110341 -0.019449
-0.364587 0.106769 0.134386
0.222243 0.239604 0.191237
0.166338 0.233438 0.199219
0.172790 0.244648 0.181984
-0.040696 0.166625 0.333274
-0.077354 0.171224 0.316355
-0.082769 0.173643 0.265655
-0.102492 0.172211 0.279722
-0.129567 0.168308 0.262991
-0.490362 0.115373 0.059501
-0.475955 0.117692 0.081324
-0.479611 0.118379 0.058658
0.570196 -0.285942 0.163957
0.621885 -0.283998 0.145871
0.654061 0.169355 0.208163
0.689991 0.151624 0.214734
-0.457551 0.051441 -0.050105
-0.489755 0.116325 0.037198
0.438671 -0.266872 0.216690
-0.384341 0.021500 -0.140596
-0.360051 0.022879 -0.156858
-0.382576 0.021832 -0.139452
-0.089815 0.083108 -0.241380
-0.135523 0.071923 -0.233677
-0.293711 0.179697 0.085354
-0.088152 0.076028 -0.244856
-0.098275 0.089099 -0.236608
-0.099617 -0.172387 -0.252226
-0.094334 -0.166654 -0.254962
-0.117765 -0.164123 -0.254331
0.609415 0.173553 0.224926
-0.200925 0.124269 0.277161
-0.202364 0.119532 0.249476
-0.235726 0.120822 0.254544
-0.347093 0.024154 0.188761
-0.207458 0.130602 0.298145
-0.465837 0.019329 -0.014921
-0.460222 0.039865 -0.006061
-0.241665 0.124410 0.273071
0.818091 0.114105 0.122934
-0.353030 0.061547 0.171249
-0.330476 0.069175 0.183491
0.224794 -0.388840 0.079808
-0.133603 0.186298 0.198176
0.128900 0.308511 -0.120422
0.177852 0.308113 -0.128363
0.128222 0.299422 -0.140506
-0.070008 -0.178618 -0.251670
-0.053891 -0.173869 -0.255040
-0.089957 -0.158140 -0.257425
-0.044392 0.104246 0.270822
-0.071829 0.092579 0.269033
-0.100925 0.094384 0.261991
0.481967 0.176758 -0.189528
0.175921 0.299179 -0.147305
-0.159643 -0.281267 0.084470
-0.181933 -0.291838 0.067154
-0.206400 -0.267970 0.083417
-0.466530 0.045418 -0.031969
-0.459441 0.008826 0.049805
-0.464121 0.006127 0.023422
-0.463504 0.007906 0.032203
-0.026378 0.226222 0.180146
-0.464743 0.006757 0.005852
-0.464813 -0.014613 -0.011691
0.756820 0.169264 -0.250803
0.709543 0.189016 -0.245381
-0.250939 -0.299982 -0.070021
-0.227344 -0.314783 -0.047719
0.701741 0.198992 -0.216931
-0.458907 0.067749 0.093837
-0.442475 0.047967 0.113462
0.532086 -0.153470 0.241492
-0.347567 0.092821 -0.138501
-0.350288 0.091080 -0.138484
0.361327 -0.386201 -0.128252
0.412144 -0.376048 -0.132724
0.364523 -0.369925 -0.156127
-0.444019 0.018031 -0.076652
0.175199 -0.153712 0.282072
-0.454623 0.016698 -0.056550
-0.440160 0.016979 -0.079693
0.319648 -0.316453 0.179663
0.554318 -0.366074 0.000279
0.473670 0.205514 -0.159956
0.431901 0.211274 -0.163627
0.439374 0.197070 -0.178941
-0.370032 0.025675 0.178426
-0.373634 0.027145 0.174761
-0.145254 0.233124 0.102834
0.189174 -0.179155 0.318389
-0.464708 -0.014814 -0.008105
-0.466753 -0.016996 0.010763
-0.466254 -0.015330 0.016743
-0.237301 0.119064 0.231623
-0.439206 0.081416 -0.184931
-0.450334 0.105532 -0.154374
0.009023 -0.328290 -0.164926
0.716235 -0.286036 0.080339
-0.460470 0.062895 0.027685
-0.463280 0.054317 0.020065
1.013868 -0.057033 -0.108115
0.251935 0.290054 0.018860
0.800075 0.140274 0.129380
0.783801 -0.246544 0.091039
0.784427 -0.257422 0.064021
0.750889 -0.266745 0.085776
-0.216707 0.159410 0.360500
-0.213232 0.157413 0.359815
-0.350462 0.085614 -0.082751
-0.368422 0.081276 -0.074713
-0.366040 0.073749 -0.088954