# vtk DataFile Version 2.0
Simplicial Mesh Example
ASCII
DATASET UNSTRUCTURED_GRID
POINTS 23420 double
-4.370844e+04 -2.584006e+04 -2.468283e+05
-5.805435e+03 -3.992067e+04 -2.487119e+05
-4.780036e+03 -3.700826e+04 -2.492059e+05
-7.040411e+03 -3.583260e+04 -2.493126e+05
-2.560114e+04 -2.738626e+04 -2.491603e+05
-2.799007e+04 -2.931638e+04 -2.486849e+05
3.013014e+04 -6.910702e+04 -2.404587e+05
2.766214e+04 -6.677752e+04 -2.414102e+05
2.797045e+04 -7.113076e+04 -2.401293e+05
2.550214e+04 -6.880028e+04 -2.410805e+05
-7.411909e+03 -3.878293e+04 -2.488750e+05
-8.975188e+03 -3.796233e+04 -2.489429e+05
-9.399407e+03 -3.483731e+04 -2.493555e+05
-1.067684e+04 -3.723773e+04 -2.489635e+05
-5.610325e+04 -2.308233e+04 -2.445853e+05
-5.274350e+04 -2.392517e+04 -2.452399e+05
-5.366805e+04 -2.114412e+04 -2.453093e+05
-5.764680e+04 -2.006971e+04 -2.444955e+05
-1.254533e+04 -3.644208e+04 -2.489860e+05
-2.476559e+04 -3.052526e+04 -2.488935e+05
-2.236833e+04 -2.860074e+04 -2.493512e+05
2.517111e+04 -6.445185e+04 -2.423096e+05
-3.472110e+04 -2.730403e+04 -2.480873e+05
-3.559710e+04 -2.471760e+04 -2.482099e+05
-3.801012e+04 -2.671454e+04 -2.476468e+05
-1.190697e+04 -3.377935e+04 -2.494012e+05
1.764575e+04 -6.168752e+04 -2.436826e+05
2.006144e+04 -5.988194e+04 -2.439482e+05
1.741754e+04 -5.766504e+04 -2.446680e+05
-4.128431e+04 -2.384416e+04 -2.474460e+05
-4.396792e+04 -2.332084e+04 -2.470126e+05
2.046885e+04 -6.417718e+04 -2.428129e+05
2.300976e+04 -6.647398e+04 -2.419777e+05
2.263188e+04 -6.215571e+04 -2.431471e+05
-1.925271e+04 -3.338427e+04 -2.489991e+05
-4.101002e+04 -2.625417e+04 -2.472159e+05
-3.858858e+04 -2.425817e+04 -2.478081e+05
9.326098e+02 -4.512290e+04 -2.479013e+05
2.870364e+03 -4.282424e+04 -2.483038e+05
-3.230835e+04 -2.528460e+04 -2.486303e+05
-1.459812e+04 -3.556796e+04 -2.490108e+05
-1.442014e+04 -3.271902e+04 -2.494470e+05
1.701238e+02 -4.062464e+04 -2.486650e+05
-3.870227e+03 -4.129122e+04 -2.485154e+05
-2.483814e+03 -3.868578e+04 -2.489550e+05
-2.895449e+04 -2.633550e+04 -2.488953e+05
-3.135557e+04 -2.831021e+04 -2.483861e+05
-1.685328e+04 -3.460767e+04 -2.490380e+05
-1.683843e+04 -3.147733e+04 -2.494214e+05
5.113607e+03 -4.548782e+04 -2.477595e+05
3.176190e+03 -4.778301e+04 -2.473583e+05
7.356849e+03 -4.815140e+04 -2.472152e+05
-1.947300e+04 -3.010685e+04 -2.493879e+05
-2.187975e+04 -3.202188e+04 -2.489488e+05
-5.030010e+04 -2.197341e+04 -2.459347e+05
-4.944018e+04 -2.469309e+04 -2.458523e+05
-4.700193e+04 -2.272056e+04 -2.465171e+05
1.442309e+04 -5.898666e+04 -2.445519e+05
5.421934e+03 -5.044569e+04 -2.468148e+05
9.722639e+03 -5.069020e+04 -2.466348e+05
-1.531315e+03 -4.294767e+04 -2.482780e+05
-5.943741e+04 -2.217833e+04 -2.438818e+05
-4.639379e+04 -2.530754e+04 -2.463738e+05
1.225612e+04 -5.305825e+04 -2.460049e+05
1.478960e+04 -5.542630e+04 -2.453749e+05
1.121233e+04 -5.612486e+04 -2.453827e+05
8.099960e+03 -5.319331e+04 -2.461556e+05
-6.080548e+04 -1.918576e+04 -2.438003e+05
-6.275490e+04 -2.124888e+04 -2.431343e+05
3.160428e+04 -3.331874e+04 -2.477644e+05
2.941486e+04 -3.536006e+04 -2.477526e+05
2.987080e+04 -3.142743e+04 -2.482143e+05
2.767569e+04 -3.347089e+04 -2.482005e+05
3.325321e+04 -3.527048e+04 -2.472507e+05
3.106495e+04 -3.731255e+04 -2.472361e+05
4.264658e+04 -4.726883e+04 -2.438156e+05
4.045921e+04 -4.931990e+04 -2.437830e+05
4.107706e+04 -4.529266e+04 -2.444430e+05
3.655106e+04 -3.917397e+04 -2.462232e+05
3.436513e+04 -4.121755e+04 -2.462031e+05
3.490213e+04 -3.722223e+04 -2.467370e+05
3.271504e+04 -3.926505e+04 -2.467196e+05
4.616702e+04 -5.085919e+04 -2.424427e+05
3.809462e+04 -4.119169e+04 -2.456496e+05
3.958584e+04 -4.324218e+04 -2.450463e+05
3.740559e+04 -4.528417e+04 -2.450201e+05
5.021183e+04 -5.377735e+04 -2.410068e+05
5.026562e+04 -5.716887e+04 -2.402204e+05
4.802107e+04 -5.584758e+04 -2.409819e+05
4.591419e+04 -5.449067e+04 -2.417042e+05
4.810669e+04 -5.242433e+04 -2.417347e+05
4.397820e+04 -5.291661e+04 -2.424091e+05
-4.581157e+04 3.464393e+04 -2.453657e+05
-4.633777e+04 3.900463e+04 -2.446129e+05
-4.370657e+04 3.677835e+04 -2.454394e+05
2.058176e+04 -2.582338e+04 -2.497898e+05
2.453652e+04 -2.584920e+04 -2.494627e+05
2.233751e+04 -2.788854e+04 -2.494516e+05
4.221870e+04 -5.111826e+04 -2.430960e+05
4.440680e+04 -4.906401e+04 -2.431291e+05
5.297777e+04 -5.852130e+04 -2.393161e+05
5.817740e+04 -5.779827e+04 -2.382829e+05
5.512046e+04 -5.641225e+04 -2.393381e+05
5.605281e+04 -5.991611e+04 -2.382691e+05
3.591411e+04 -4.323297e+04 -2.456282e+05
2.809271e+04 -2.956802e+04 -2.486304e+05
2.589641e+04 -3.161023e+04 -2.486175e+05
3.889706e+04 -4.733537e+04 -2.444119e+05
2.631461e+04 -2.770861e+04 -2.490466e+05
2.411713e+04 -2.974957e+04 -2.490345e+05
2.064029e+04 -2.126244e+04 -2.502061e+05
1.653981e+04 -2.104288e+04 -2.505599e+05
-4.844380e+04 3.687166e+04 -2.445356e+05
1.424388e+04 -1.363727e+04 -2.511830e+05
1.198059e+04 -1.092534e+04 -2.514759e+05
9.727251e+03 -1.290554e+04 -2.514796e+05
1.650717e+04 -1.634921e+04 -2.508901e+05
1.429888e+04 -1.836616e+04 -2.508850e+05
1.203371e+04 -1.565228e+04 -2.511818e+05
1.868457e+04 -1.894967e+04 -2.505758e+05
-2.449615e+04 1.656712e+04 -2.502230e+05
-2.893697e+04 1.704145e+04 -2.497373e+05
-2.684310e+04 1.918995e+04 -2.498147e+05
-3.134341e+04 2.457614e+04 -2.488210e+05
-3.368542e+04 2.716904e+04 -2.482311e+05
-3.578462e+04 2.502768e+04 -2.481626e+05
-3.344144e+04 2.243190e+04 -2.487498e+05
-4.898542e+03 1.819867e+03 -2.519187e+05
-6.968177e+03 -3.280965e+02 -2.518771e+05
-8.029113e+03 3.477741e+03 -2.518012e+05
-3.605038e+04 2.973689e+04 -2.476179e+05
-3.815193e+04 2.759705e+04 -2.475504e+05
-3.854521e+04 3.215698e+04 -2.469339e+05
1.865792e+04 -2.354801e+04 -2.501563e+05
-3.600486e+03 -2.324236e+03 -2.519298e+05
-4.109461e+04 3.451147e+04 -2.462151e+05
-4.064728e+04 3.002005e+04 -2.468659e+05
3.810364e+01 -4.652884e+03 -2.519161e+05
1.141429e+03 -1.880650e+03 -2.519439e+05
4.126686e+03 -3.791323e+03 -2.519236e+05
-4.319804e+04 3.237626e+04 -2.461452e+05
-1.115968e+04 5.135615e+03 -2.516836e+05
-1.010047e+04 1.330941e+03 -2.517470e+05
-2.909325e+04 2.188305e+04 -2.493178e+05
-3.118920e+04 1.973667e+04 -2.492436e+05
-1.323276e+04 2.989979e+03 -2.516169e+05
-1.406821e+04 7.133674e+03 -2.514692e+05
6.806608e+03 -6.091452e+03 -2.517962e+05
3.590208e+03 -7.193551e+03 -2.518506e+05
-1.689380e+04 9.258793e+03 -2.512187e+05
-1.614731e+04 4.982549e+03 -2.513966e+05
5.250561e+04 -5.511115e+04 -2.402213e+05
-1.843829e+03 3.002275e+01 -2.519643e+05
9.398318e+03 -8.504095e+03 -2.516380e+05
-1.971939e+04 1.138391e+04 -2.509682e+05
-2.180127e+04 9.235982e+03 -2.508834e+05
-1.897429e+04 7.109265e+03 -2.511400e+05
2.259600e+04 -2.357522e+04 -2.498364e+05
6.804226e+03 -1.018496e+04 -2.516563e+05
-2.658673e+04 1.441760e+04 -2.501423e+05
-2.211115e+04 1.397190e+04 -2.505966e+05
-2.420008e+04 1.182030e+04 -2.505144e+05
-1.007482e+04 4.862302e+04 -2.470588e+05
-1.299191e+04 5.046964e+04 -2.465523e+05
-1.513111e+04 4.840552e+04 -2.468440e+05
-1.219578e+04 4.654685e+04 -2.473624e+05
2.878391e+04 1.643615e+04 -2.497617e+05
3.107771e+04 1.844028e+04 -2.493476e+05
3.329156e+04 1.687649e+04 -2.491717e+05
3.069005e+04 1.518312e+04 -2.496280e+05
2.856239e+04 2.021702e+04 -2.495475e+05
3.390001e+04 1.294647e+04 -2.493463e+05
3.543166e+04 1.536479e+04 -2.490016e+05
3.229361e+04 1.412900e+04 -2.495156e+05
6.052631e+04 -1.872076e+03 -2.446049e+05
5.847886e+04 -3.870189e+03 -2.450651e+05
5.730419e+04 2.046281e+02 -2.453648e+05
7.359392e+02 4.003579e+04 -2.487685e+05
3.138329e+03 3.753498e+04 -2.491563e+05
-1.313027e+03 3.790168e+04 -2.491027e+05
5.338454e+04 2.966652e+03 -2.462515e+05
5.530927e+04 -1.951200e+03 -2.458324e+05
4.887197e+04 5.924998e+03 -2.470949e+05
4.682850e+04 3.839578e+03 -2.475456e+05
5.154108e+04 6.547826e+02 -2.466328e+05
4.446442e+04 8.794021e+03 -2.478870e+05
1.915131e+04 2.453101e+04 -2.500633e+05
1.726678e+04 2.235442e+04 -2.503773e+05
2.049937e+04 2.098658e+04 -2.502386e+05
1.611619e+04 2.624758e+04 -2.500671e+05
7.012962e+04 -4.035402e+03 -2.420113e+05
-1.679726e+03 4.252160e+04 -2.483793e+05
-4.417734e+03 4.464320e+04 -2.479573e+05
-3.774035e+03 4.037706e+04 -2.487081e+05
7.331666e+04 -2.963847e+03 -2.410783e+05
2.233496e+04 2.311281e+04 -2.498929e+05
2.371482e+04 1.962599e+04 -2.501006e+05
6.358470e+04 -3.349198e+03 -2.438047e+05
6.145609e+04 -5.593090e+03 -2.443170e+05
6.474892e+04 -6.143102e+03 -2.434462e+05
3.779376e+04 1.366345e+04 -2.487454e+05
3.595818e+04 1.139390e+04 -2.491126e+05
7.640565e+04 -1.647825e+03 -2.401322e+05
7.446523e+04 -3.778324e+03 -2.407170e+05
7.134782e+04 -5.111396e+03 -2.416338e+05
7.772021e+03 3.235200e+04 -2.497520e+05
5.692990e+03 3.010249e+04 -2.501029e+05
-6.498066e+03 4.254658e+04 -2.482809e+05
-7.199065e+03 4.670185e+04 -2.475224e+05
-9.297994e+03 4.461915e+04 -2.478384e+05
5.468393e+03 3.495750e+04 -2.494681e+05
3.416076e+03 3.276003e+04 -2.497980e+05
1.139161e+03 3.541757e+04 -2.494931e+05
3.863839e+04 9.372096e+03 -2.488082e+05
6.677089e+04 -4.152610e+03 -2.429471e+05
6.810909e+04 -6.126528e+03 -2.425392e+05
2.648087e+04 1.795009e+04 -2.499232e+05
2.551861e+04 2.169462e+04 -2.497225e+05
1.413931e+04 2.392070e+04 -2.504419e+05
4.074577e+04 1.150855e+04 -2.483655e+05
4.218662e+04 6.868283e+03 -2.483163e+05
1.008318e+04 2.975549e+04 -2.500331e+05
8.265197e+03 2.777228e+04 -2.503026e+05
1.309968e+04 2.800153e+04 -2.500501e+05
1.120226e+04 2.584649e+04 -2.503722e+05
5.086577e+04 3.344514e+04 -2.445222e+05
4.925149e+04 3.280912e+04 -2.449510e+05
5.133941e+04 3.475465e+04 -2.442541e+05
4.994557e+04 3.404279e+04 -2.446299e+05
2.454394e+04 6.055377e+04 -2.433353e+05
2.792594e+04 6.096171e+04 -2.428622e+05
2.286108e+04 6.249609e+04 -2.430409e+05
2.621040e+04 6.294216e+04 -2.425600e+05
2.956563e+04 5.465030e+04 -2.442024e+05
2.790970e+04 5.666909e+04 -2.439243e+05
1.937169e+04 6.624568e+04 -2.423184e+05
2.091731e+04 6.872412e+04 -2.414993e+05
2.270633e+04 6.682363e+04 -2.418788e+05
5.549665e+04 3.190791e+04 -2.436892e+05
5.489104e+04 3.070410e+04 -2.439820e+05
5.272723e+04 3.380146e+04 -2.440667e+05
[...]
POINT_DATA 23420
VECTORS displacement double
0.051902 0.049814 0.164513
0.067136 -0.035949 0.071541
0.069078 -0.029587 0.081232
0.070342 -0.025038 0.091519
0.062687 0.015477 0.145148
0.063059 0.015940 0.148803
0.053469 0.053637 -0.042137
0.057444 0.045486 -0.035114
0.052187 0.057795 -0.053158
0.058593 0.045326 -0.044503
0.069351 -0.032465 0.083124
0.071348 -0.026426 0.092836
0.070755 -0.020710 0.099647
0.072061 -0.023810 0.100595
0.034971 0.042936 0.170115
0.038723 0.046858 0.171441
0.037190 0.049594 0.168497
0.034500 0.048367 0.167615
0.071826 -0.022066 0.108233
0.063212 0.000980 0.144130
0.063584 0.002562 0.139161
0.060038 0.036824 -0.028976
0.059625 0.037338 0.156580
0.059216 0.045758 0.153421
0.058569 0.045843 0.157707
0.070204 -0.018020 0.107590
0.064565 0.016578 -0.022945
0.063001 0.019903 -0.017045
0.063739 0.011842 -0.011247
0.054090 0.051862 0.157070
0.050522 0.052365 0.160344
0.063423 0.026132 -0.030330
0.061673 0.035518 -0.037024
0.061822 0.028201 -0.023060
0.065936 -0.016919 0.130242
0.055689 0.049342 0.160695
0.057112 0.050290 0.154621
0.065474 -0.029363 0.031562
0.064857 -0.028186 0.040523
0.060662 0.038056 0.151700
0.070677 -0.019879 0.115795
0.068566 -0.015886 0.114965
0.066466 -0.030468 0.055043
0.067657 -0.033788 0.061472
0.067619 -0.031132 0.068488
0.061818 0.027317 0.148879
0.061615 0.026115 0.153918
0.068271 -0.019518 0.123048
0.066596 -0.013222 0.122643
0.064295 -0.023661 0.026943
0.065045 -0.024418 0.018120
0.064099 -0.017329 0.016341
0.064914 -0.007650 0.130893
0.064161 -0.011413 0.137708
0.041443 0.051514 0.166855
0.043271 0.048848 0.170280
0.046140 0.052162 0.163960
0.065083 0.006606 -0.015127
0.064726 -0.018270 0.009143
0.064118 -0.010486 0.008110
0.067050 -0.032025 0.047801
0.034878 0.036380 0.161845
0.047814 0.049587 0.167844
0.064082 -0.003338 0.001164
0.064056 0.004101 -0.005348
0.065131 -0.002665 -0.007190
0.064976 -0.011077 0.001228
0.037154 0.046842 0.164099
0.047593 0.020037 0.143598
0.047556 -0.003104 0.063380
0.049069 0.004056 0.056756
0.049220 -0.010020 0.065742
0.050653 -0.002823 0.059489
0.045917 0.003940 0.060529
0.047318 0.011257 0.053555
0.033649 0.040652 0.034150
0.034351 0.046566 0.026224
0.035890 0.035589 0.039508
0.042258 0.017360 0.053852
0.043550 0.024946 0.046255
0.044116 0.010796 0.057275
0.045461 0.018225 0.049782
0.029964 0.049794 0.026616
0.040274 0.023766 0.049677
0.038145 0.029901 0.044845
0.039203 0.037502 0.037260
0.028441 0.058594 0.024755
0.028748 0.061801 0.017692
0.028686 0.057724 0.016842
0.029143 0.054642 0.016744
0.028931 0.054182 0.024836
0.030452 0.052275 0.018575
0.019562 0.261927 -0.063226
0.014201 0.268120 -0.085447
0.019874 0.260270 -0.083043
0.057625 -0.028450 0.072279
0.054445 -0.030769 0.072627
0.055607 -0.021818 0.068465
0.032160 0.049679 0.021945
0.031638 0.045267 0.030057
0.029110 0.067984 0.018641
0.025324 0.075220 0.025982
0.027450 0.069351 0.026552
0.027943 0.077452 0.017719
0.041501 0.031474 0.042158
0.050893 -0.016886 0.067997
0.052176 -0.009490 0.062232
0.036737 0.042642 0.031815
0.052610 -0.023830 0.070225
0.053778 -0.015876 0.065101
0.058778 -0.048060 0.078382
0.062127 -0.044983 0.080238
0.012908 0.270815 -0.065891
0.064947 -0.079549 0.082662
0.066355 -0.091842 0.081182
0.067920 -0.075961 0.090969
0.062927 -0.067809 0.082236
0.064439 -0.054770 0.084083
0.066497 -0.065130 0.087665
0.060794 -0.057198 0.080656
0.045727 0.201481 -0.033527
0.043062 0.205314 -0.018603
0.043809 0.207669 -0.041617
0.039584 0.221283 -0.058595
0.036839 0.228642 -0.065489
0.036801 0.227552 -0.044335
0.039361 0.219560 -0.037028
0.064222 0.164991 -0.009783
0.064339 0.156269 0.062268
0.061624 0.170578 -0.012714
0.033540 0.236277 -0.071722
0.033583 0.236038 -0.050987
0.029584 0.244324 -0.076368
0.059778 -0.036189 0.076115
0.066781 0.103886 0.122089
0.025042 0.252330 -0.080211
0.029685 0.244583 -0.055945
0.068355 -0.037440 0.146207
0.067301 -0.105251 0.110212
0.067809 -0.122082 0.078808
0.025057 0.253308 -0.060069
0.058590 0.175980 -0.010552
0.061318 0.169470 0.040812
0.041867 0.214276 -0.050363
0.041387 0.212075 -0.028235
0.057670 0.176153 0.032369
0.055396 0.180797 -0.012319
0.067804 -0.113301 0.078728
0.069094 -0.084485 0.111354
0.052425 0.185790 -0.014862
0.054274 0.181246 0.024352
0.028092 0.063695 0.025456
0.066018 0.154396 0.038212
0.067329 -0.102543 0.080180
0.049579 0.190724 -0.016767
0.048403 0.189474 0.011286
0.051305 0.185769 0.016948
0.056588 -0.039212 0.075691
0.069032 -0.083652 0.097318
0.044846 0.199340 -0.009208
0.047625 0.195860 -0.025364
0.046562 0.194024 0.000653
0.031081 0.138258 -0.276105
0.029937 0.152969 -0.272064
0.033813 0.157681 -0.253207
0.030896 0.151527 -0.263106
0.051612 -0.206361 -0.153900
0.050571 -0.206512 -0.153318
0.049173 -0.213885 -0.134913
0.050640 -0.214081 -0.137058
0.052129 -0.195513 -0.174817
0.047951 -0.220533 -0.110961
0.047744 -0.218887 -0.117416
0.049254 -0.217607 -0.124357
0.037081 -0.206334 0.048814
0.036183 -0.210110 0.044608
0.036973 -0.213077 0.029768
0.039384 0.068919 -0.284307
0.040298 0.050173 -0.282423
0.039487 0.085903 -0.274565
0.038568 -0.221175 0.007688
0.036826 -0.214059 0.029507
0.041173 -0.227938 -0.017939
0.041840 -0.228353 -0.015203
0.038936 -0.220595 0.010386
0.043582 -0.230309 -0.046031
0.053019 -0.132967 -0.239147
0.053503 -0.129009 -0.245613
0.055257 -0.161398 -0.221435
0.050902 -0.097857 -0.256179
0.040440 -0.188231 0.095866
0.038084 0.086166 -0.285412
0.036088 0.104557 -0.283864
0.038524 0.103195 -0.275156
0.033530 -0.180286 0.089762
0.053957 -0.161259 -0.218605
0.055303 -0.182267 -0.196855
0.039036 -0.202128 0.069177
0.039195 -0.209806 0.064657
0.039617 -0.205798 0.084537
0.046497 -0.223482 -0.097962
0.046717 -0.224747 -0.093607
0.028187 -0.180438 0.082149
0.026215 -0.165288 0.084456
0.039198 -0.184504 0.099863
0.042707 0.005640 -0.277050
0.042551 0.024693 -0.273700
0.036195 0.121258 -0.273264
0.033552 0.122042 -0.280623
0.033352 0.137979 -0.269172
0.041125 0.029805 -0.279758
0.040488 0.048081 -0.272819
0.040101 0.067194 -0.274080
0.045432 -0.228979 -0.071593
0.040757 -0.196534 0.087298
0.040147 -0.196197 0.099613
0.053082 -0.195351 -0.174365
0.053521 -0.181278 -0.196877
0.051279 -0.088451 -0.264238
0.045272 -0.227836 -0.074060
0.044174 -0.231421 -0.044690
0.045220 -0.023292 -0.274204
0.046639 -0.008486 -0.276639
0.048169 -0.060294 -0.267928
0.048381 -0.047154 -0.273781
0.033045 -0.235457 -0.143207
0.032750 -0.232636 -0.147729
0.033592 -0.234827 -0.145325
0.033004 -0.232366 -0.148532
0.038289 -0.102495 -0.302603
0.039264 -0.120375 -0.297909
0.038298 -0.091014 -0.311328
0.039381 -0.109301 -0.307322
0.037681 -0.135856 -0.273616
0.037984 -0.124822 -0.283738
0.037844 -0.067521 -0.327166
0.038982 -0.074704 -0.332788
0.039227 -0.086394 -0.324693
0.034168 -0.246380 -0.119670
0.033534 -0.246656 -0.118694
0.033722 -0.239015 -0.136906
0.033133 -0.239465 -0.135291
0.033299 -0.243223 -0.127047
0.032646 -0.221083 -0.166324
0.033199 -0.213370 -0.178478
0.033910 -0.242874 -0.128378
0.034001 -0.216657 -0.178131
0.038097 -0.152092 -0.266648
0.036931 -0.146596 -0.262311
0.039038 -0.131258 -0.288088
0.038701 -0.141878 -0.277876
0.035821 -0.011241 -0.360504
0.034978 0.000921 -0.367108
0.037257 -0.264481 -0.063301
0.038736 -0.266579 -0.048942
0.037557 -0.261684 -0.069803
0.038837 -0.264096 -0.056025
0.030910 0.031890 -0.381703
0.032471 0.018217 -0.386907
0.025895 0.049741 -0.389849
0.028623 0.034167 -0.392469
0.037409 -0.029182 -0.361752
0.036743 -0.018159 -0.368250
0.036375 -0.022319 -0.354282
0.035921 -0.261650 -0.076364
0.036508 -0.258943 -0.081835
0.035006 -0.258950 -0.087464
0.034557 -0.206890 -0.192920
0.038123 -0.113662 -0.293333
0.037202 -0.044542 -0.341373
0.038680 -0.063062 -0.340528
0.037927 -0.040427 -0.354956
0.035066 -0.252924 -0.101672
0.035165 -0.256505 -0.092231
0.036851 -0.033469 -0.347956
0.034367 -0.252811 -0.102406
0.038339 -0.051658 -0.347901
0.038140 -0.079285 -0.319478
0.039391 -0.098060 -0.316286
0.035866 -0.007168 -0.374476
0.033547 0.015469 -0.374486
0.034649 0.004428 -0.380561
0.033574 -0.230000 -0.154519
0.032428 -0.227024 -0.156174
0.042046 -0.259676 -0.002149
0.035143 -0.203734 -0.192193
0.034548 -0.249690 -0.110757
0.033863 -0.249723 -0.110650
0.032996 -0.248337 -0.114918
0.042106 -0.264738 -0.013545
0.037525 -0.055896 -0.334454
0.033690 -0.224101 -0.165348
0.036032 -0.157635 -0.249697
0.036422 -0.173671 -0.239716
0.037256 -0.162706 -0.253927
0.034233 -0.255669 -0.097380
0.033462 -0.251732 -0.106449
0.032616 -0.237364 -0.139631
0.035719 -0.256115 -0.092244
0.035391 -0.168958 -0.235814
0.036878 -0.247674 0.015513
0.032629 -0.241242 -0.131482
0.032776 -0.244913 -0.123231
0.041775 -0.261723 -0.002042
0.041847 -0.265526 -0.019287
0.034517 -0.180596 -0.221362
0.034977 -0.196255 -0.208710
0.035631 -0.185032 -0.224406
0.040258 -0.265570 -0.041531
0.040353 -0.267068 -0.034435
0.041487 -0.265774 -0.027268
0.038741 -0.254860 0.008109
0.034165 -0.192348 -0.206713
0.312424 -0.288251 0.003561
0.375875 -0.282605 0.030858
-0.123985 0.139500 -0.068109
-0.237713 0.294192 0.114768
-0.349965 0.422210 0.278649
-0.376309 0.430588 0.242676
-0.241611 0.303149 0.086893
-0.128163 0.156530 -0.088870
-0.259942 0.321512 0.113122
-0.129259 0.164396 -0.100533
-0.247872 0.308354 0.080167
-0.388519 0.431632 0.225951
-0.246047 0.310642 0.074481
-0.370146 0.429274 0.251437
-0.127888 0.150948 -0.083191
-0.256825 0.317274 0.116384
-0.153163 0.238144 -0.141239
-0.156504 0.239300 -0.140058
-0.422711 0.398088 0.081329
-0.418284 0.384313 0.057574
0.285219 -0.322444 0.035474
0.292799 -0.316015 0.025254
-0.393794 0.432224 0.218149
-0.382230 0.430158 0.234375
-0.119858 0.134264 -0.058661
-0.221719 0.282435 0.121026
-0.218213 0.271732 0.125071
-0.240284 0.301078 0.133476
-0.122156 0.136212 -0.062875
-0.342541 0.417971 0.288619
-0.124789 0.143664 -0.072604
-0.238573 0.299857 0.107769
-0.247156 0.313954 0.018128
-0.136295 0.209334 -0.136003
-0.417503 0.422438 0.160362
-0.261862 0.324459 0.027910
-0.135599 0.201888 -0.134375
-0.170986 0.235742 -0.128207
-0.187704 0.228811 -0.117482
-0.405952 0.356805 0.030195
-0.397139 0.324086 0.016696
-0.114955 0.130767 -0.042610
-0.296481 0.383265 0.342478
-0.107055 0.129360 -0.040198
-0.306188 0.390691 0.326904
-0.146089 0.233581 -0.145876
-0.131493 0.176172 -0.111619
-0.243943 0.316091 0.065567
-0.422929 0.412788 0.124315
-0.143302 0.226730 -0.143809
-0.423806 0.405648 0.102385
-0.144254 0.229739 -0.144492
-0.210548 0.213240 -0.098626
-0.303501 0.239821 -0.022860
-0.241342 0.205936 -0.063082
0.299904 -0.306457 0.012840
-0.138688 0.217811 -0.141667
-0.420340 0.417030 0.142062
-0.417544 0.417995 0.151283
0.411929 -0.281827 0.055270
0.439810 -0.286293 0.077115
-0.422517 0.392113 0.070168
-0.130598 0.169730 -0.105880
-0.325708 0.406576 0.308631
-0.213523 0.262723 0.122140
-0.118238 0.132640 -0.053268
-0.411367 0.423949 0.176570
-0.133910 0.196835 -0.129542
-0.132361 0.193572 -0.125606
-0.424029 0.401263 0.093206
-0.148347 0.236502 -0.144844
-0.315347 0.400293 0.318462
-0.126115 0.146934 -0.077831
-0.363839 0.427066 0.260373
-0.423967 0.408286 0.113510
0.239911 -0.283334 0.051084
0.268953 -0.299311 0.063590
0.513285 -0.347369 0.201651
0.214253 -0.147580 0.536034
-0.018564 -0.141184 0.052197
-0.048263 0.189022 0.003176
-0.066417 0.162988 -0.003583
-0.055980 0.183779 -0.007055
-0.421247 0.413986 0.133846
-0.357392 0.424670 0.269216
0.425918 -0.384785 0.392780
-0.075233 -0.035494 0.010693
-0.051900 -0.134716 0.043475
0.130289 -0.038450 0.537493
0.154868 -0.068751 0.539447
-0.074247 -0.085313 0.024582
0.053197 0.039005 0.515758
-0.103125 0.132053 -0.037621
-0.285154 0.371838 0.357564
-0.273523 0.355965 0.372778
-0.162679 0.238530 -0.136125
-0.411200 0.372281 0.044462
-0.099058 0.134558 -0.028954
0.077749 0.017135 0.524275
-0.071758 -0.056470 0.020273
0.177293 -0.223439 0.075614
0.502227 -0.413793 0.303034
0.513816 -0.412173 0.288943
-0.005162 -0.140669 0.057400
0.008462 -0.139756 0.065620
0.268527 -0.223680 0.512307
0.016048 -0.146508 0.063560
0.028075 -0.150350 0.070657
0.319544 -0.286857 0.485011
0.231615 -0.264980 0.066529
-0.408168 0.425861 0.184443
-0.044115 0.077727 0.468730
-0.049815 0.146006 0.004043
-0.131417 0.182796 -0.114542
-0.400339 0.430513 0.202180
-0.397667 0.431576 0.210260
-0.248357 0.304314 0.044818
-0.405085 0.427880 0.192976
-0.131594 0.188870 -0.120967
-0.044250 0.187447 0.007729
-0.101969 0.098495 0.445959
-0.048956 0.132386 0.002594
-0.059769 0.089087 0.003530
-0.050723 0.064386 0.463972
-0.064684 0.038620 0.004258
-0.065073 0.060539 -0.000891
-0.028130 0.067284 0.474280
-0.137875 0.213856 -0.139444
-0.060773 0.065262 0.452554
-0.043952 0.179878 0.007942
-0.075985 0.079685 0.449439
-0.095148 0.137850 -0.023741
-0.261078 0.340516 0.382033
-0.240862 0.321513 0.387885
0.534640 -0.385766 0.251357
0.075652 -0.176176 0.077694
-0.141342 0.221052 -0.144366
-0.069542 0.159567 -0.022291
-0.211991 0.270372 0.415691
-0.131656 0.140755 0.444224
-0.078823 0.152534 -0.031999
-0.225741 0.289889 0.408970
-0.116516 0.117570 0.444799
-0.046496 0.188997 0.005712
0.530919 -0.399228 0.257073
0.277069 -0.326844 0.048572
0.462876 -0.290482 0.101319
0.523829 -0.409274 0.274496
-0.127921 0.160469 -0.094656
-0.048218 0.162499 0.010056
-0.088109 0.082845 0.446918
0.013368 0.063224 0.499284
-0.180611 0.215597 0.422472
-0.373112 0.289414 0.016650
-0.415092 0.424515 0.169827
-0.074614 -0.012277 0.008157
-0.019636 0.071610 0.489894
-0.008475 0.077560 0.492190
0.032125 0.052740 0.511988
0.158107 -0.214762 0.076897
0.489252 -0.412473 0.319467
0.474955 -0.409404 0.337495
0.063213 -0.169324 0.077862
0.195905 -0.232028 0.072544
-0.026372 -0.134148 0.053865
-0.165729 0.191598 0.439998
-0.046121 0.190961 -0.004571
0.039009 -0.155610 0.074313
0.121600 -0.198463 0.077850
0.240600 -0.184695 0.527180
0.482417 -0.300808 0.133505
0.213960 -0.247554 0.067468
-0.146432 0.162269 0.446791
-0.065248 -0.114307 0.035178
0.407465 -0.371336 0.410158
0.262526 -0.326164 0.053053
0.506416 -0.313435 0.177842
-0.200423 0.253449 0.415757
-0.041722 -0.137203 0.045410
0.139211 -0.206691 0.076822
0.535038 -0.371546 0.243499
0.343796 -0.313025 0.465623
0.388640 -0.356929 0.428162
0.444175 -0.396136 0.371748
0.105901 -0.191172 0.079097
0.459925 -0.403525 0.354826
0.365840 -0.334588 0.451277
0.048596 -0.163266 0.071969
0.089211 -0.184464 0.076117
0.185110 -0.110764 0.533721
-0.058395 -0.124497 0.040619
0.103403 -0.010451 0.530313
-0.334027 0.412305 0.298092
0.293328 -0.255020 0.503861
-0.117076 0.130964 -0.046678
-0.070349 -0.101504 0.030049
-0.333236 0.224916 -0.088085
-0.185855 0.214423 -0.096311
-0.343834 0.228960 -0.061846
-0.201478 0.212870 -0.083837
-0.338554 0.226600 -0.075088
-0.247569 0.207145 -0.041529
-0.291127 0.227051 -0.004251
-0.377830 0.257841 -0.003517
-0.351908 0.231583 -0.047858
-0.220760 0.209088 -0.067658
-0.356536 0.237688 -0.030984
0.133019 -0.033198 -0.296236
0.103975 0.018063 -0.231256
0.140979 -0.037985 -0.293359
-0.271597 0.208890 -0.175653
-0.090743 0.197805 -0.133987
-0.104066 0.204951 -0.130122
0.123655 -0.027446 -0.300745
0.089447 0.026401 -0.226452
-0.316119 0.221391 -0.122255
-0.150870 0.215686 -0.114450
-0.253216 0.201854 -0.191138
-0.234750 0.196234 -0.205429
-0.068719 0.179259 -0.141649
-0.079426 0.189459 -0.138376
0.157658 -0.245042 -0.163764
0.187172 -0.196765 -0.030718
0.168900 -0.257501 -0.151390
-0.065212 0.145949 -0.279029
-0.005766 0.087869 -0.188062
0.131859 -0.144160 -0.227277
0.169168 -0.170728 -0.179660
0.167460 -0.169448 -0.183464
0.128690 -0.146904 -0.221570
0.172305 -0.173395 -0.171393
0.130236 -0.145449 -0.224306
0.170724 -0.171985 -0.175630
-0.100867 0.157194 -0.269242
-0.014562 0.097578 -0.178769
-0.083748 0.150368 -0.273693
-0.000786 0.076858 -0.197103
0.176828 -0.180169 -0.147223
0.123562 -0.153512 -0.211735
0.123803 -0.156970 -0.210557
-0.326707 0.223516 -0.103623
0.180755 -0.268859 -0.136672
0.185721 -0.200804 -0.020851
0.185712 -0.203432 -0.013121
-0.362186 0.272579 0.023516
-0.024131 0.111000 -0.170489
-0.133302 0.213797 -0.120913
-0.302810 0.218052 -0.141173
0.127133 -0.148454 -0.218769
0.173345 -0.175099 -0.166967
0.125811 -0.150021 -0.216174
0.174186 -0.177336 -0.161803
0.138274 -0.138285 -0.241464
0.159194 -0.164444 -0.195209
0.161298 -0.165723 -0.193127
0.136597 -0.139781 -0.237217
0.123425 -0.159338 -0.207812
0.178101 -0.182812 -0.139641
0.163429 -0.167147 -0.190153
-0.132366 0.162955 -0.258508
0.139805 -0.136401 -0.246074
0.156832 -0.163347 -0.196718
0.186182 -0.192577 -0.063810
0.131537 -0.200976 -0.189250
0.139135 -0.215490 -0.183014
0.185504 -0.197464 -0.052259
0.123156 -0.162787 -0.204778
0.177812 -0.185426 -0.132890
0.025070 0.079251 -0.316936
0.045824 0.059638 -0.318805
0.050548 0.044617 -0.211298
0.041942 0.048275 -0.205448
0.006082 0.100480 -0.311898
0.031995 0.053911 -0.209322
0.187295 -0.234578 -0.000272
0.168330 -0.051521 -0.298032
0.136018 -0.009487 -0.213437
0.223357 -0.279015 -0.049969
0.224841 -0.286762 -0.068685
0.184803 -0.224339 0.002950
0.062899 0.039062 -0.322934
0.083134 0.012866 -0.318756
0.066683 0.037919 -0.211948
0.133418 -0.142721 -0.230362
0.165526 -0.168337 -0.186973
0.122497 -0.167371 -0.201717
0.125990 -0.187269 -0.193641
0.183459 -0.194027 -0.089915
0.185112 -0.192942 -0.076777
-0.029515 0.130076 -0.291846
0.005078 0.068022 -0.203987
0.011888 0.061026 -0.208050
-0.048006 0.138964 -0.284119
0.216636 -0.288981 -0.086746
-0.214782 0.188768 -0.219091
-0.059048 0.167174 -0.145753
0.096504 0.022524 -0.230787
-0.168232 0.215806 -0.106927
0.098793 -0.002601 -0.312193
0.075541 0.036334 -0.222013
0.082757 0.033042 -0.225401
-0.010600 0.116576 -0.302682
0.020965 0.057364 -0.207680
0.111647 -0.015460 -0.308476
0.134876 -0.141414 -0.233563
-0.031278 0.126511 -0.162490
0.124663 -0.151811 -0.213482
0.175555 -0.178738 -0.155179
0.205440 -0.285362 -0.104379
0.184389 -0.209444 -0.005680
0.183907 -0.216246 -0.000196
0.124048 -0.179708 -0.197950
0.121729 -0.172402 -0.200510
-0.174673 0.176760 -0.241749
-0.048706 0.155643 -0.151124
-0.038704 0.141539 -0.155290
0.111302 0.013523 -0.229158
0.148914 -0.042152 -0.291691
0.120172 0.007650 -0.226348
0.142926 -0.132053 -0.255447
0.151119 -0.159727 -0.199663
0.154202 -0.161422 -0.197949
0.146612 -0.227091 -0.173914
0.186942 -0.194616 -0.040420
0.153273 -0.093047 -0.313319
0.151180 -0.106202 -0.302772
0.134261 -0.122889 -0.199423
0.058631 0.044151 -0.213919
0.141599 -0.133993 -0.251128
0.143787 -0.129831 -0.259666
0.148091 -0.157396 -0.201191
-0.118151 0.210183 -0.125823
-0.153686 0.169346 -0.251711
-0.192950 0.180741 -0.230576
0.167970 -0.056263 -0.319137
0.148470 -0.117333 -0.283612
0.148794 -0.121399 -0.278658
0.142063 -0.150875 -0.201085
0.193451 -0.279130 -0.121043
-0.287440 0.213534 -0.158998
0.144023 -0.127152 -0.264271
0.168940 -0.051101 -0.309785
0.141142 -0.023993 -0.207100
0.141658 -0.049908 -0.199671
0.136341 -0.081486 -0.198703
0.146054 -0.124589 -0.271272
0.145852 -0.154127 -0.201804
0.200708 -0.244416 -0.006401
0.179835 -0.185954 -0.122112
0.159124 -0.077363 -0.324404
0.162359 -0.047233 -0.295121
0.133905 -0.105021 -0.199951
-0.114667 0.161722 -0.267570
0.183154 -0.188049 -0.109540
0.183016 -0.190044 -0.100292
0.129247 0.002831 -0.222798
0.156461 -0.046045 -0.290512
0.135427 -0.137096 -0.201145
0.138564 -0.145570 -0.201318
0.148489 -0.110976 -0.290382
-0.287596 0.307786 -0.380275
-0.287100 0.291649 -0.392112
-0.396967 0.302792 -0.439295
-0.282364 0.274172 -0.405076
-0.365128 0.287998 -0.455242
0.191164 -0.052899 0.248510
0.011780 -0.107200 0.136795
-0.257187 0.351753 -0.266095
-0.512284 0.409425 -0.174511
-0.505822 0.414370 -0.152340
-0.137773 0.241244 0.041494
-0.264718 0.189953 0.291262
-0.134575 0.226699 0.045332
-0.263333 0.355160 -0.280143
0.279564 -0.167817 0.226345
-0.130568 0.194516 0.054460
-0.131684 0.212252 0.050179
-0.217442 0.155504 0.308163
-0.520351 0.406362 -0.197775
-0.241208 0.172266 0.299787
-0.288136 0.322327 -0.370540
-0.464154 0.334203 -0.383310
-0.420756 0.315018 -0.423158
-0.169911 0.383348 -0.042820
-0.172475 0.378767 -0.057711
-0.401387 0.333492 0.031938
-0.407561 0.330992 0.042765
0.029035 -0.094118 0.125407
0.198762 -0.068566 0.246215
0.227234 -0.102820 0.252715